#hBN a=1.45, lx=24, ly=41
3936 atoms

2 atom types

0 104.4 xlo xhi
0 102.97 ylo yhi
-38 38 zlo zhi

Masses

1 14.0067
2 10.811

Atoms

1 1 0 0 3.3
2 2 0.725 1.25574 3.3
3 1 2.175 1.25574 3.3
4 2 2.9 0 3.3
5 1 0 2.51147 3.3
6 2 0.725 3.76721 3.3
7 1 2.175 3.76721 3.3
8 2 2.9 2.51147 3.3
9 1 0 5.02295 3.3
10 2 0.725 6.27868 3.3
11 1 2.175 6.27868 3.3
12 2 2.9 5.02295 3.3
13 1 0 7.53442 3.3
14 2 0.725 8.79016 3.3
15 1 2.175 8.79016 3.3
16 2 2.9 7.53442 3.3
17 1 0 10.0459 3.3
18 2 0.725 11.3016 3.3
19 1 2.175 11.3016 3.3
20 2 2.9 10.0459 3.3
21 1 0 12.5574 3.3
22 2 0.725 13.8131 3.3
23 1 2.175 13.8131 3.3
24 2 2.9 12.5574 3.3
25 1 0 15.0688 3.3
26 2 0.725 16.3246 3.3
27 1 2.175 16.3246 3.3
28 2 2.9 15.0688 3.3
29 1 0 17.5803 3.3
30 2 0.725 18.8361 3.3
31 1 2.175 18.8361 3.3
32 2 2.9 17.5803 3.3
33 1 0 20.0918 3.3
34 2 0.725 21.3475 3.3
35 1 2.175 21.3475 3.3
36 2 2.9 20.0918 3.3
37 1 0 22.6033 3.3
38 2 0.725 23.859 3.3
39 1 2.175 23.859 3.3
40 2 2.9 22.6033 3.3
41 1 0 25.1147 3.3
42 2 0.725 26.3705 3.3
43 1 2.175 26.3705 3.3
44 2 2.9 25.1147 3.3
45 1 0 27.6262 3.3
46 2 0.725 28.8819 3.3
47 1 2.175 28.8819 3.3
48 2 2.9 27.6262 3.3
49 1 0 30.1377 3.3
50 2 0.725 31.3934 3.3
51 1 2.175 31.3934 3.3
52 2 2.9 30.1377 3.3
53 1 0 32.6492 3.3
54 2 0.725 33.9049 3.3
55 1 2.175 33.9049 3.3
56 2 2.9 32.6492 3.3
57 1 0 35.1606 3.3
58 2 0.725 36.4164 3.3
59 1 2.175 36.4164 3.3
60 2 2.9 35.1606 3.3
61 1 0 37.6721 3.3
62 2 0.725 38.9278 3.3
63 1 2.175 38.9278 3.3
64 2 2.9 37.6721 3.3
65 1 0 40.1836 3.3
66 2 0.725 41.4393 3.3
67 1 2.175 41.4393 3.3
68 2 2.9 40.1836 3.3
69 1 0 42.6951 3.3
70 2 0.725 43.9508 3.3
71 1 2.175 43.9508 3.3
72 2 2.9 42.6951 3.3
73 1 0 45.2065 3.3
74 2 0.725 46.4623 3.3
75 1 2.175 46.4623 3.3
76 2 2.9 45.2065 3.3
77 1 0 47.718 3.3
78 2 0.725 48.9737 3.3
79 1 2.175 48.9737 3.3
80 2 2.9 47.718 3.3
81 1 0 50.2295 3.3
82 2 0.725 51.4852 3.3
83 1 2.175 51.4852 3.3
84 2 2.9 50.2295 3.3
85 1 0 52.7409 3.3
86 2 0.725 53.9967 3.3
87 1 2.175 53.9967 3.3
88 2 2.9 52.7409 3.3
89 1 0 55.2524 3.3
90 2 0.725 56.5082 3.3
91 1 2.175 56.5082 3.3
92 2 2.9 55.2524 3.3
93 1 0 57.7639 3.3
94 2 0.725 59.0196 3.3
95 1 2.175 59.0196 3.3
96 2 2.9 57.7639 3.3
97 1 0 60.2754 3.3
98 2 0.725 61.5311 3.3
99 1 2.175 61.5311 3.3
100 2 2.9 60.2754 3.3
101 1 0 62.7868 3.3
102 2 0.725 64.0426 3.3
103 1 2.175 64.0426 3.3
104 2 2.9 62.7868 3.3
105 1 0 65.2983 3.3
106 2 0.725 66.5541 3.3
107 1 2.175 66.5541 3.3
108 2 2.9 65.2983 3.3
109 1 0 67.8098 3.3
110 2 0.725 69.0655 3.3
111 1 2.175 69.0655 3.3
112 2 2.9 67.8098 3.3
113 1 0 70.3213 3.3
114 2 0.725 71.577 3.3
115 1 2.175 71.577 3.3
116 2 2.9 70.3213 3.3
117 1 0 72.8327 3.3
118 2 0.725 74.0885 3.3
119 1 2.175 74.0885 3.3
120 2 2.9 72.8327 3.3
121 1 0 75.3442 3.3
122 2 0.725 76.5999 3.3
123 1 2.175 76.5999 3.3
124 2 2.9 75.3442 3.3
125 1 0 77.8557 3.3
126 2 0.725 79.1114 3.3
127 1 2.175 79.1114 3.3
128 2 2.9 77.8557 3.3
129 1 0 80.3672 3.3
130 2 0.725 81.6229 3.3
131 1 2.175 81.6229 3.3
132 2 2.9 80.3672 3.3
133 1 0 82.8786 3.3
134 2 0.725 84.1344 3.3
135 1 2.175 84.1344 3.3
136 2 2.9 82.8786 3.3
137 1 0 85.3901 3.3
138 2 0.725 86.6458 3.3
139 1 2.175 86.6458 3.3
140 2 2.9 85.3901 3.3
141 1 0 87.9016 3.3
142 2 0.725 89.1573 3.3
143 1 2.175 89.1573 3.3
144 2 2.9 87.9016 3.3
145 1 0 90.4131 3.3
146 2 0.725 91.6688 3.3
147 1 2.175 91.6688 3.3
148 2 2.9 90.4131 3.3
149 1 0 92.9245 3.3
150 2 0.725 94.1803 3.3
151 1 2.175 94.1803 3.3
152 2 2.9 92.9245 3.3
153 1 0 95.436 3.3
154 2 0.725 96.6917 3.3
155 1 2.175 96.6917 3.3
156 2 2.9 95.436 3.3
157 1 0 97.9475 3.3
158 2 0.725 99.2032 3.3
159 1 2.175 99.2032 3.3
160 2 2.9 97.9475 3.3
161 1 0 100.459 3.3
162 2 0.725 101.715 3.3
163 1 2.175 101.715 3.3
164 2 2.9 100.459 3.3
165 1 4.35 0 3.3
166 2 5.075 1.25574 3.3
167 1 6.525 1.25574 3.3
168 2 7.25 0 3.3
169 1 4.35 2.51147 3.3
170 2 5.075 3.76721 3.3
171 1 6.525 3.76721 3.3
172 2 7.25 2.51147 3.3
173 1 4.35 5.02295 3.3
174 2 5.075 6.27868 3.3
175 1 6.525 6.27868 3.3
176 2 7.25 5.02295 3.3
177 1 4.35 7.53442 3.3
178 2 5.075 8.79016 3.3
179 1 6.525 8.79016 3.3
180 2 7.25 7.53442 3.3
181 1 4.35 10.0459 3.3
182 2 5.075 11.3016 3.3
183 1 6.525 11.3016 3.3
184 2 7.25 10.0459 3.3
185 1 4.35 12.5574 3.3
186 2 5.075 13.8131 3.3
187 1 6.525 13.8131 3.3
188 2 7.25 12.5574 3.3
189 1 4.35 15.0688 3.3
190 2 5.075 16.3246 3.3
191 1 6.525 16.3246 3.3
192 2 7.25 15.0688 3.3
193 1 4.35 17.5803 3.3
194 2 5.075 18.8361 3.3
195 1 6.525 18.8361 3.3
196 2 7.25 17.5803 3.3
197 1 4.35 20.0918 3.3
198 2 5.075 21.3475 3.3
199 1 6.525 21.3475 3.3
200 2 7.25 20.0918 3.3
201 1 4.35 22.6033 3.3
202 2 5.075 23.859 3.3
203 1 6.525 23.859 3.3
204 2 7.25 22.6033 3.3
205 1 4.35 25.1147 3.3
206 2 5.075 26.3705 3.3
207 1 6.525 26.3705 3.3
208 2 7.25 25.1147 3.3
209 1 4.35 27.6262 3.3
210 2 5.075 28.8819 3.3
211 1 6.525 28.8819 3.3
212 2 7.25 27.6262 3.3
213 1 4.35 30.1377 3.3
214 2 5.075 31.3934 3.3
215 1 6.525 31.3934 3.3
216 2 7.25 30.1377 3.3
217 1 4.35 32.6492 3.3
218 2 5.075 33.9049 3.3
219 1 6.525 33.9049 3.3
220 2 7.25 32.6492 3.3
221 1 4.35 35.1606 3.3
222 2 5.075 36.4164 3.3
223 1 6.525 36.4164 3.3
224 2 7.25 35.1606 3.3
225 1 4.35 37.6721 3.3
226 2 5.075 38.9278 3.3
227 1 6.525 38.9278 3.3
228 2 7.25 37.6721 3.3
229 1 4.35 40.1836 3.3
230 2 5.075 41.4393 3.3
231 1 6.525 41.4393 3.3
232 2 7.25 40.1836 3.3
233 1 4.35 42.6951 3.3
234 2 5.075 43.9508 3.3
235 1 6.525 43.9508 3.3
236 2 7.25 42.6951 3.3
237 1 4.35 45.2065 3.3
238 2 5.075 46.4623 3.3
239 1 6.525 46.4623 3.3
240 2 7.25 45.2065 3.3
241 1 4.35 47.718 3.3
242 2 5.075 48.9737 3.3
243 1 6.525 48.9737 3.3
244 2 7.25 47.718 3.3
245 1 4.35 50.2295 3.3
246 2 5.075 51.4852 3.3
247 1 6.525 51.4852 3.3
248 2 7.25 50.2295 3.3
249 1 4.35 52.7409 3.3
250 2 5.075 53.9967 3.3
251 1 6.525 53.9967 3.3
252 2 7.25 52.7409 3.3
253 1 4.35 55.2524 3.3
254 2 5.075 56.5082 3.3
255 1 6.525 56.5082 3.3
256 2 7.25 55.2524 3.3
257 1 4.35 57.7639 3.3
258 2 5.075 59.0196 3.3
259 1 6.525 59.0196 3.3
260 2 7.25 57.7639 3.3
261 1 4.35 60.2754 3.3
262 2 5.075 61.5311 3.3
263 1 6.525 61.5311 3.3
264 2 7.25 60.2754 3.3
265 1 4.35 62.7868 3.3
266 2 5.075 64.0426 3.3
267 1 6.525 64.0426 3.3
268 2 7.25 62.7868 3.3
269 1 4.35 65.2983 3.3
270 2 5.075 66.5541 3.3
271 1 6.525 66.5541 3.3
272 2 7.25 65.2983 3.3
273 1 4.35 67.8098 3.3
274 2 5.075 69.0655 3.3
275 1 6.525 69.0655 3.3
276 2 7.25 67.8098 3.3
277 1 4.35 70.3213 3.3
278 2 5.075 71.577 3.3
279 1 6.525 71.577 3.3
280 2 7.25 70.3213 3.3
281 1 4.35 72.8327 3.3
282 2 5.075 74.0885 3.3
283 1 6.525 74.0885 3.3
284 2 7.25 72.8327 3.3
285 1 4.35 75.3442 3.3
286 2 5.075 76.5999 3.3
287 1 6.525 76.5999 3.3
288 2 7.25 75.3442 3.3
289 1 4.35 77.8557 3.3
290 2 5.075 79.1114 3.3
291 1 6.525 79.1114 3.3
292 2 7.25 77.8557 3.3
293 1 4.35 80.3672 3.3
294 2 5.075 81.6229 3.3
295 1 6.525 81.6229 3.3
296 2 7.25 80.3672 3.3
297 1 4.35 82.8786 3.3
298 2 5.075 84.1344 3.3
299 1 6.525 84.1344 3.3
300 2 7.25 82.8786 3.3
301 1 4.35 85.3901 3.3
302 2 5.075 86.6458 3.3
303 1 6.525 86.6458 3.3
304 2 7.25 85.3901 3.3
305 1 4.35 87.9016 3.3
306 2 5.075 89.1573 3.3
307 1 6.525 89.1573 3.3
308 2 7.25 87.9016 3.3
309 1 4.35 90.4131 3.3
310 2 5.075 91.6688 3.3
311 1 6.525 91.6688 3.3
312 2 7.25 90.4131 3.3
313 1 4.35 92.9245 3.3
314 2 5.075 94.1803 3.3
315 1 6.525 94.1803 3.3
316 2 7.25 92.9245 3.3
317 1 4.35 95.436 3.3
318 2 5.075 96.6917 3.3
319 1 6.525 96.6917 3.3
320 2 7.25 95.436 3.3
321 1 4.35 97.9475 3.3
322 2 5.075 99.2032 3.3
323 1 6.525 99.2032 3.3
324 2 7.25 97.9475 3.3
325 1 4.35 100.459 3.3
326 2 5.075 101.715 3.3
327 1 6.525 101.715 3.3
328 2 7.25 100.459 3.3
329 1 8.7 0 3.3
330 2 9.425 1.25574 3.3
331 1 10.875 1.25574 3.3
332 2 11.6 0 3.3
333 1 8.7 2.51147 3.3
334 2 9.425 3.76721 3.3
335 1 10.875 3.76721 3.3
336 2 11.6 2.51147 3.3
337 1 8.7 5.02295 3.3
338 2 9.425 6.27868 3.3
339 1 10.875 6.27868 3.3
340 2 11.6 5.02295 3.3
341 1 8.7 7.53442 3.3
342 2 9.425 8.79016 3.3
343 1 10.875 8.79016 3.3
344 2 11.6 7.53442 3.3
345 1 8.7 10.0459 3.3
346 2 9.425 11.3016 3.3
347 1 10.875 11.3016 3.3
348 2 11.6 10.0459 3.3
349 1 8.7 12.5574 3.3
350 2 9.425 13.8131 3.3
351 1 10.875 13.8131 3.3
352 2 11.6 12.5574 3.3
353 1 8.7 15.0688 3.3
354 2 9.425 16.3246 3.3
355 1 10.875 16.3246 3.3
356 2 11.6 15.0688 3.3
357 1 8.7 17.5803 3.3
358 2 9.425 18.8361 3.3
359 1 10.875 18.8361 3.3
360 2 11.6 17.5803 3.3
361 1 8.7 20.0918 3.3
362 2 9.425 21.3475 3.3
363 1 10.875 21.3475 3.3
364 2 11.6 20.0918 3.3
365 1 8.7 22.6033 3.3
366 2 9.425 23.859 3.3
367 1 10.875 23.859 3.3
368 2 11.6 22.6033 3.3
369 1 8.7 25.1147 3.3
370 2 9.425 26.3705 3.3
371 1 10.875 26.3705 3.3
372 2 11.6 25.1147 3.3
373 1 8.7 27.6262 3.3
374 2 9.425 28.8819 3.3
375 1 10.875 28.8819 3.3
376 2 11.6 27.6262 3.3
377 1 8.7 30.1377 3.3
378 2 9.425 31.3934 3.3
379 1 10.875 31.3934 3.3
380 2 11.6 30.1377 3.3
381 1 8.7 32.6492 3.3
382 2 9.425 33.9049 3.3
383 1 10.875 33.9049 3.3
384 2 11.6 32.6492 3.3
385 1 8.7 35.1606 3.3
386 2 9.425 36.4164 3.3
387 1 10.875 36.4164 3.3
388 2 11.6 35.1606 3.3
389 1 8.7 37.6721 3.3
390 2 9.425 38.9278 3.3
391 1 10.875 38.9278 3.3
392 2 11.6 37.6721 3.3
393 1 8.7 40.1836 3.3
394 2 9.425 41.4393 3.3
395 1 10.875 41.4393 3.3
396 2 11.6 40.1836 3.3
397 1 8.7 42.6951 3.3
398 2 9.425 43.9508 3.3
399 1 10.875 43.9508 3.3
400 2 11.6 42.6951 3.3
401 1 8.7 45.2065 3.3
402 2 9.425 46.4623 3.3
403 1 10.875 46.4623 3.3
404 2 11.6 45.2065 3.3
405 1 8.7 47.718 3.3
406 2 9.425 48.9737 3.3
407 1 10.875 48.9737 3.3
408 2 11.6 47.718 3.3
409 1 8.7 50.2295 3.3
410 2 9.425 51.4852 3.3
411 1 10.875 51.4852 3.3
412 2 11.6 50.2295 3.3
413 1 8.7 52.7409 3.3
414 2 9.425 53.9967 3.3
415 1 10.875 53.9967 3.3
416 2 11.6 52.7409 3.3
417 1 8.7 55.2524 3.3
418 2 9.425 56.5082 3.3
419 1 10.875 56.5082 3.3
420 2 11.6 55.2524 3.3
421 1 8.7 57.7639 3.3
422 2 9.425 59.0196 3.3
423 1 10.875 59.0196 3.3
424 2 11.6 57.7639 3.3
425 1 8.7 60.2754 3.3
426 2 9.425 61.5311 3.3
427 1 10.875 61.5311 3.3
428 2 11.6 60.2754 3.3
429 1 8.7 62.7868 3.3
430 2 9.425 64.0426 3.3
431 1 10.875 64.0426 3.3
432 2 11.6 62.7868 3.3
433 1 8.7 65.2983 3.3
434 2 9.425 66.5541 3.3
435 1 10.875 66.5541 3.3
436 2 11.6 65.2983 3.3
437 1 8.7 67.8098 3.3
438 2 9.425 69.0655 3.3
439 1 10.875 69.0655 3.3
440 2 11.6 67.8098 3.3
441 1 8.7 70.3213 3.3
442 2 9.425 71.577 3.3
443 1 10.875 71.577 3.3
444 2 11.6 70.3213 3.3
445 1 8.7 72.8327 3.3
446 2 9.425 74.0885 3.3
447 1 10.875 74.0885 3.3
448 2 11.6 72.8327 3.3
449 1 8.7 75.3442 3.3
450 2 9.425 76.5999 3.3
451 1 10.875 76.5999 3.3
452 2 11.6 75.3442 3.3
453 1 8.7 77.8557 3.3
454 2 9.425 79.1114 3.3
455 1 10.875 79.1114 3.3
456 2 11.6 77.8557 3.3
457 1 8.7 80.3672 3.3
458 2 9.425 81.6229 3.3
459 1 10.875 81.6229 3.3
460 2 11.6 80.3672 3.3
461 1 8.7 82.8786 3.3
462 2 9.425 84.1344 3.3
463 1 10.875 84.1344 3.3
464 2 11.6 82.8786 3.3
465 1 8.7 85.3901 3.3
466 2 9.425 86.6458 3.3
467 1 10.875 86.6458 3.3
468 2 11.6 85.3901 3.3
469 1 8.7 87.9016 3.3
470 2 9.425 89.1573 3.3
471 1 10.875 89.1573 3.3
472 2 11.6 87.9016 3.3
473 1 8.7 90.4131 3.3
474 2 9.425 91.6688 3.3
475 1 10.875 91.6688 3.3
476 2 11.6 90.4131 3.3
477 1 8.7 92.9245 3.3
478 2 9.425 94.1803 3.3
479 1 10.875 94.1803 3.3
480 2 11.6 92.9245 3.3
481 1 8.7 95.436 3.3
482 2 9.425 96.6917 3.3
483 1 10.875 96.6917 3.3
484 2 11.6 95.436 3.3
485 1 8.7 97.9475 3.3
486 2 9.425 99.2032 3.3
487 1 10.875 99.2032 3.3
488 2 11.6 97.9475 3.3
489 1 8.7 100.459 3.3
490 2 9.425 101.715 3.3
491 1 10.875 101.715 3.3
492 2 11.6 100.459 3.3
493 1 13.05 0 3.3
494 2 13.775 1.25574 3.3
495 1 15.225 1.25574 3.3
496 2 15.95 0 3.3
497 1 13.05 2.51147 3.3
498 2 13.775 3.76721 3.3
499 1 15.225 3.76721 3.3
500 2 15.95 2.51147 3.3
501 1 13.05 5.02295 3.3
502 2 13.775 6.27868 3.3
503 1 15.225 6.27868 3.3
504 2 15.95 5.02295 3.3
505 1 13.05 7.53442 3.3
506 2 13.775 8.79016 3.3
507 1 15.225 8.79016 3.3
508 2 15.95 7.53442 3.3
509 1 13.05 10.0459 3.3
510 2 13.775 11.3016 3.3
511 1 15.225 11.3016 3.3
512 2 15.95 10.0459 3.3
513 1 13.05 12.5574 3.3
514 2 13.775 13.8131 3.3
515 1 15.225 13.8131 3.3
516 2 15.95 12.5574 3.3
517 1 13.05 15.0688 3.3
518 2 13.775 16.3246 3.3
519 1 15.225 16.3246 3.3
520 2 15.95 15.0688 3.3
521 1 13.05 17.5803 3.3
522 2 13.775 18.8361 3.3
523 1 15.225 18.8361 3.3
524 2 15.95 17.5803 3.3
525 1 13.05 20.0918 3.3
526 2 13.775 21.3475 3.3
527 1 15.225 21.3475 3.3
528 2 15.95 20.0918 3.3
529 1 13.05 22.6033 3.3
530 2 13.775 23.859 3.3
531 1 15.225 23.859 3.3
532 2 15.95 22.6033 3.3
533 1 13.05 25.1147 3.3
534 2 13.775 26.3705 3.3
535 1 15.225 26.3705 3.3
536 2 15.95 25.1147 3.3
537 1 13.05 27.6262 3.3
538 2 13.775 28.8819 3.3
539 1 15.225 28.8819 3.3
540 2 15.95 27.6262 3.3
541 1 13.05 30.1377 3.3
542 2 13.775 31.3934 3.3
543 1 15.225 31.3934 3.3
544 2 15.95 30.1377 3.3
545 1 13.05 32.6492 3.3
546 2 13.775 33.9049 3.3
547 1 15.225 33.9049 3.3
548 2 15.95 32.6492 3.3
549 1 13.05 35.1606 3.3
550 2 13.775 36.4164 3.3
551 1 15.225 36.4164 3.3
552 2 15.95 35.1606 3.3
553 1 13.05 37.6721 3.3
554 2 13.775 38.9278 3.3
555 1 15.225 38.9278 3.3
556 2 15.95 37.6721 3.3
557 1 13.05 40.1836 3.3
558 2 13.775 41.4393 3.3
559 1 15.225 41.4393 3.3
560 2 15.95 40.1836 3.3
561 1 13.05 42.6951 3.3
562 2 13.775 43.9508 3.3
563 1 15.225 43.9508 3.3
564 2 15.95 42.6951 3.3
565 1 13.05 45.2065 3.3
566 2 13.775 46.4623 3.3
567 1 15.225 46.4623 3.3
568 2 15.95 45.2065 3.3
569 1 13.05 47.718 3.3
570 2 13.775 48.9737 3.3
571 1 15.225 48.9737 3.3
572 2 15.95 47.718 3.3
573 1 13.05 50.2295 3.3
574 2 13.775 51.4852 3.3
575 1 15.225 51.4852 3.3
576 2 15.95 50.2295 3.3
577 1 13.05 52.7409 3.3
578 2 13.775 53.9967 3.3
579 1 15.225 53.9967 3.3
580 2 15.95 52.7409 3.3
581 1 13.05 55.2524 3.3
582 2 13.775 56.5082 3.3
583 1 15.225 56.5082 3.3
584 2 15.95 55.2524 3.3
585 1 13.05 57.7639 3.3
586 2 13.775 59.0196 3.3
587 1 15.225 59.0196 3.3
588 2 15.95 57.7639 3.3
589 1 13.05 60.2754 3.3
590 2 13.775 61.5311 3.3
591 1 15.225 61.5311 3.3
592 2 15.95 60.2754 3.3
593 1 13.05 62.7868 3.3
594 2 13.775 64.0426 3.3
595 1 15.225 64.0426 3.3
596 2 15.95 62.7868 3.3
597 1 13.05 65.2983 3.3
598 2 13.775 66.5541 3.3
599 1 15.225 66.5541 3.3
600 2 15.95 65.2983 3.3
601 1 13.05 67.8098 3.3
602 2 13.775 69.0655 3.3
603 1 15.225 69.0655 3.3
604 2 15.95 67.8098 3.3
605 1 13.05 70.3213 3.3
606 2 13.775 71.577 3.3
607 1 15.225 71.577 3.3
608 2 15.95 70.3213 3.3
609 1 13.05 72.8327 3.3
610 2 13.775 74.0885 3.3
611 1 15.225 74.0885 3.3
612 2 15.95 72.8327 3.3
613 1 13.05 75.3442 3.3
614 2 13.775 76.5999 3.3
615 1 15.225 76.5999 3.3
616 2 15.95 75.3442 3.3
617 1 13.05 77.8557 3.3
618 2 13.775 79.1114 3.3
619 1 15.225 79.1114 3.3
620 2 15.95 77.8557 3.3
621 1 13.05 80.3672 3.3
622 2 13.775 81.6229 3.3
623 1 15.225 81.6229 3.3
624 2 15.95 80.3672 3.3
625 1 13.05 82.8786 3.3
626 2 13.775 84.1344 3.3
627 1 15.225 84.1344 3.3
628 2 15.95 82.8786 3.3
629 1 13.05 85.3901 3.3
630 2 13.775 86.6458 3.3
631 1 15.225 86.6458 3.3
632 2 15.95 85.3901 3.3
633 1 13.05 87.9016 3.3
634 2 13.775 89.1573 3.3
635 1 15.225 89.1573 3.3
636 2 15.95 87.9016 3.3
637 1 13.05 90.4131 3.3
638 2 13.775 91.6688 3.3
639 1 15.225 91.6688 3.3
640 2 15.95 90.4131 3.3
641 1 13.05 92.9245 3.3
642 2 13.775 94.1803 3.3
643 1 15.225 94.1803 3.3
644 2 15.95 92.9245 3.3
645 1 13.05 95.436 3.3
646 2 13.775 96.6917 3.3
647 1 15.225 96.6917 3.3
648 2 15.95 95.436 3.3
649 1 13.05 97.9475 3.3
650 2 13.775 99.2032 3.3
651 1 15.225 99.2032 3.3
652 2 15.95 97.9475 3.3
653 1 13.05 100.459 3.3
654 2 13.775 101.715 3.3
655 1 15.225 101.715 3.3
656 2 15.95 100.459 3.3
657 1 17.4 0 3.3
658 2 18.125 1.25574 3.3
659 1 19.575 1.25574 3.3
660 2 20.3 0 3.3
661 1 17.4 2.51147 3.3
662 2 18.125 3.76721 3.3
663 1 19.575 3.76721 3.3
664 2 20.3 2.51147 3.3
665 1 17.4 5.02295 3.3
666 2 18.125 6.27868 3.3
667 1 19.575 6.27868 3.3
668 2 20.3 5.02295 3.3
669 1 17.4 7.53442 3.3
670 2 18.125 8.79016 3.3
671 1 19.575 8.79016 3.3
672 2 20.3 7.53442 3.3
673 1 17.4 10.0459 3.3
674 2 18.125 11.3016 3.3
675 1 19.575 11.3016 3.3
676 2 20.3 10.0459 3.3
677 1 17.4 12.5574 3.3
678 2 18.125 13.8131 3.3
679 1 19.575 13.8131 3.3
680 2 20.3 12.5574 3.3
681 1 17.4 15.0688 3.3
682 2 18.125 16.3246 3.3
683 1 19.575 16.3246 3.3
684 2 20.3 15.0688 3.3
685 1 17.4 17.5803 3.3
686 2 18.125 18.8361 3.3
687 1 19.575 18.8361 3.3
688 2 20.3 17.5803 3.3
689 1 17.4 20.0918 3.3
690 2 18.125 21.3475 3.3
691 1 19.575 21.3475 3.3
692 2 20.3 20.0918 3.3
693 1 17.4 22.6033 3.3
694 2 18.125 23.859 3.3
695 1 19.575 23.859 3.3
696 2 20.3 22.6033 3.3
697 1 17.4 25.1147 3.3
698 2 18.125 26.3705 3.3
699 1 19.575 26.3705 3.3
700 2 20.3 25.1147 3.3
701 1 17.4 27.6262 3.3
702 2 18.125 28.8819 3.3
703 1 19.575 28.8819 3.3
704 2 20.3 27.6262 3.3
705 1 17.4 30.1377 3.3
706 2 18.125 31.3934 3.3
707 1 19.575 31.3934 3.3
708 2 20.3 30.1377 3.3
709 1 17.4 32.6492 3.3
710 2 18.125 33.9049 3.3
711 1 19.575 33.9049 3.3
712 2 20.3 32.6492 3.3
713 1 17.4 35.1606 3.3
714 2 18.125 36.4164 3.3
715 1 19.575 36.4164 3.3
716 2 20.3 35.1606 3.3
717 1 17.4 37.6721 3.3
718 2 18.125 38.9278 3.3
719 1 19.575 38.9278 3.3
720 2 20.3 37.6721 3.3
721 1 17.4 40.1836 3.3
722 2 18.125 41.4393 3.3
723 1 19.575 41.4393 3.3
724 2 20.3 40.1836 3.3
725 1 17.4 42.6951 3.3
726 2 18.125 43.9508 3.3
727 1 19.575 43.9508 3.3
728 2 20.3 42.6951 3.3
729 1 17.4 45.2065 3.3
730 2 18.125 46.4623 3.3
731 1 19.575 46.4623 3.3
732 2 20.3 45.2065 3.3
733 1 17.4 47.718 3.3
734 2 18.125 48.9737 3.3
735 1 19.575 48.9737 3.3
736 2 20.3 47.718 3.3
737 1 17.4 50.2295 3.3
738 2 18.125 51.4852 3.3
739 1 19.575 51.4852 3.3
740 2 20.3 50.2295 3.3
741 1 17.4 52.7409 3.3
742 2 18.125 53.9967 3.3
743 1 19.575 53.9967 3.3
744 2 20.3 52.7409 3.3
745 1 17.4 55.2524 3.3
746 2 18.125 56.5082 3.3
747 1 19.575 56.5082 3.3
748 2 20.3 55.2524 3.3
749 1 17.4 57.7639 3.3
750 2 18.125 59.0196 3.3
751 1 19.575 59.0196 3.3
752 2 20.3 57.7639 3.3
753 1 17.4 60.2754 3.3
754 2 18.125 61.5311 3.3
755 1 19.575 61.5311 3.3
756 2 20.3 60.2754 3.3
757 1 17.4 62.7868 3.3
758 2 18.125 64.0426 3.3
759 1 19.575 64.0426 3.3
760 2 20.3 62.7868 3.3
761 1 17.4 65.2983 3.3
762 2 18.125 66.5541 3.3
763 1 19.575 66.5541 3.3
764 2 20.3 65.2983 3.3
765 1 17.4 67.8098 3.3
766 2 18.125 69.0655 3.3
767 1 19.575 69.0655 3.3
768 2 20.3 67.8098 3.3
769 1 17.4 70.3213 3.3
770 2 18.125 71.577 3.3
771 1 19.575 71.577 3.3
772 2 20.3 70.3213 3.3
773 1 17.4 72.8327 3.3
774 2 18.125 74.0885 3.3
775 1 19.575 74.0885 3.3
776 2 20.3 72.8327 3.3
777 1 17.4 75.3442 3.3
778 2 18.125 76.5999 3.3
779 1 19.575 76.5999 3.3
780 2 20.3 75.3442 3.3
781 1 17.4 77.8557 3.3
782 2 18.125 79.1114 3.3
783 1 19.575 79.1114 3.3
784 2 20.3 77.8557 3.3
785 1 17.4 80.3672 3.3
786 2 18.125 81.6229 3.3
787 1 19.575 81.6229 3.3
788 2 20.3 80.3672 3.3
789 1 17.4 82.8786 3.3
790 2 18.125 84.1344 3.3
791 1 19.575 84.1344 3.3
792 2 20.3 82.8786 3.3
793 1 17.4 85.3901 3.3
794 2 18.125 86.6458 3.3
795 1 19.575 86.6458 3.3
796 2 20.3 85.3901 3.3
797 1 17.4 87.9016 3.3
798 2 18.125 89.1573 3.3
799 1 19.575 89.1573 3.3
800 2 20.3 87.9016 3.3
801 1 17.4 90.4131 3.3
802 2 18.125 91.6688 3.3
803 1 19.575 91.6688 3.3
804 2 20.3 90.4131 3.3
805 1 17.4 92.9245 3.3
806 2 18.125 94.1803 3.3
807 1 19.575 94.1803 3.3
808 2 20.3 92.9245 3.3
809 1 17.4 95.436 3.3
810 2 18.125 96.6917 3.3
811 1 19.575 96.6917 3.3
812 2 20.3 95.436 3.3
813 1 17.4 97.9475 3.3
814 2 18.125 99.2032 3.3
815 1 19.575 99.2032 3.3
816 2 20.3 97.9475 3.3
817 1 17.4 100.459 3.3
818 2 18.125 101.715 3.3
819 1 19.575 101.715 3.3
820 2 20.3 100.459 3.3
821 1 21.75 0 3.3
822 2 22.475 1.25574 3.3
823 1 23.925 1.25574 3.3
824 2 24.65 0 3.3
825 1 21.75 2.51147 3.3
826 2 22.475 3.76721 3.3
827 1 23.925 3.76721 3.3
828 2 24.65 2.51147 3.3
829 1 21.75 5.02295 3.3
830 2 22.475 6.27868 3.3
831 1 23.925 6.27868 3.3
832 2 24.65 5.02295 3.3
833 1 21.75 7.53442 3.3
834 2 22.475 8.79016 3.3
835 1 23.925 8.79016 3.3
836 2 24.65 7.53442 3.3
837 1 21.75 10.0459 3.3
838 2 22.475 11.3016 3.3
839 1 23.925 11.3016 3.3
840 2 24.65 10.0459 3.3
841 1 21.75 12.5574 3.3
842 2 22.475 13.8131 3.3
843 1 23.925 13.8131 3.3
844 2 24.65 12.5574 3.3
845 1 21.75 15.0688 3.3
846 2 22.475 16.3246 3.3
847 1 23.925 16.3246 3.3
848 2 24.65 15.0688 3.3
849 1 21.75 17.5803 3.3
850 2 22.475 18.8361 3.3
851 1 23.925 18.8361 3.3
852 2 24.65 17.5803 3.3
853 1 21.75 20.0918 3.3
854 2 22.475 21.3475 3.3
855 1 23.925 21.3475 3.3
856 2 24.65 20.0918 3.3
857 1 21.75 22.6033 3.3
858 2 22.475 23.859 3.3
859 1 23.925 23.859 3.3
860 2 24.65 22.6033 3.3
861 1 21.75 25.1147 3.3
862 2 22.475 26.3705 3.3
863 1 23.925 26.3705 3.3
864 2 24.65 25.1147 3.3
865 1 21.75 27.6262 3.3
866 2 22.475 28.8819 3.3
867 1 23.925 28.8819 3.3
868 2 24.65 27.6262 3.3
869 1 21.75 30.1377 3.3
870 2 22.475 31.3934 3.3
871 1 23.925 31.3934 3.3
872 2 24.65 30.1377 3.3
873 1 21.75 32.6492 3.3
874 2 22.475 33.9049 3.3
875 1 23.925 33.9049 3.3
876 2 24.65 32.6492 3.3
877 1 21.75 35.1606 3.3
878 2 22.475 36.4164 3.3
879 1 23.925 36.4164 3.3
880 2 24.65 35.1606 3.3
881 1 21.75 37.6721 3.3
882 2 22.475 38.9278 3.3
883 1 23.925 38.9278 3.3
884 2 24.65 37.6721 3.3
885 1 21.75 40.1836 3.3
886 2 22.475 41.4393 3.3
887 1 23.925 41.4393 3.3
888 2 24.65 40.1836 3.3
889 1 21.75 42.6951 3.3
890 2 22.475 43.9508 3.3
891 1 23.925 43.9508 3.3
892 2 24.65 42.6951 3.3
893 1 21.75 45.2065 3.3
894 2 22.475 46.4623 3.3
895 1 23.925 46.4623 3.3
896 2 24.65 45.2065 3.3
897 1 21.75 47.718 3.3
898 2 22.475 48.9737 3.3
899 1 23.925 48.9737 3.3
900 2 24.65 47.718 3.3
901 1 21.75 50.2295 3.3
902 2 22.475 51.4852 3.3
903 1 23.925 51.4852 3.3
904 2 24.65 50.2295 3.3
905 1 21.75 52.7409 3.3
906 2 22.475 53.9967 3.3
907 1 23.925 53.9967 3.3
908 2 24.65 52.7409 3.3
909 1 21.75 55.2524 3.3
910 2 22.475 56.5082 3.3
911 1 23.925 56.5082 3.3
912 2 24.65 55.2524 3.3
913 1 21.75 57.7639 3.3
914 2 22.475 59.0196 3.3
915 1 23.925 59.0196 3.3
916 2 24.65 57.7639 3.3
917 1 21.75 60.2754 3.3
918 2 22.475 61.5311 3.3
919 1 23.925 61.5311 3.3
920 2 24.65 60.2754 3.3
921 1 21.75 62.7868 3.3
922 2 22.475 64.0426 3.3
923 1 23.925 64.0426 3.3
924 2 24.65 62.7868 3.3
925 1 21.75 65.2983 3.3
926 2 22.475 66.5541 3.3
927 1 23.925 66.5541 3.3
928 2 24.65 65.2983 3.3
929 1 21.75 67.8098 3.3
930 2 22.475 69.0655 3.3
931 1 23.925 69.0655 3.3
932 2 24.65 67.8098 3.3
933 1 21.75 70.3213 3.3
934 2 22.475 71.577 3.3
935 1 23.925 71.577 3.3
936 2 24.65 70.3213 3.3
937 1 21.75 72.8327 3.3
938 2 22.475 74.0885 3.3
939 1 23.925 74.0885 3.3
940 2 24.65 72.8327 3.3
941 1 21.75 75.3442 3.3
942 2 22.475 76.5999 3.3
943 1 23.925 76.5999 3.3
944 2 24.65 75.3442 3.3
945 1 21.75 77.8557 3.3
946 2 22.475 79.1114 3.3
947 1 23.925 79.1114 3.3
948 2 24.65 77.8557 3.3
949 1 21.75 80.3672 3.3
950 2 22.475 81.6229 3.3
951 1 23.925 81.6229 3.3
952 2 24.65 80.3672 3.3
953 1 21.75 82.8786 3.3
954 2 22.475 84.1344 3.3
955 1 23.925 84.1344 3.3
956 2 24.65 82.8786 3.3
957 1 21.75 85.3901 3.3
958 2 22.475 86.6458 3.3
959 1 23.925 86.6458 3.3
960 2 24.65 85.3901 3.3
961 1 21.75 87.9016 3.3
962 2 22.475 89.1573 3.3
963 1 23.925 89.1573 3.3
964 2 24.65 87.9016 3.3
965 1 21.75 90.4131 3.3
966 2 22.475 91.6688 3.3
967 1 23.925 91.6688 3.3
968 2 24.65 90.4131 3.3
969 1 21.75 92.9245 3.3
970 2 22.475 94.1803 3.3
971 1 23.925 94.1803 3.3
972 2 24.65 92.9245 3.3
973 1 21.75 95.436 3.3
974 2 22.475 96.6917 3.3
975 1 23.925 96.6917 3.3
976 2 24.65 95.436 3.3
977 1 21.75 97.9475 3.3
978 2 22.475 99.2032 3.3
979 1 23.925 99.2032 3.3
980 2 24.65 97.9475 3.3
981 1 21.75 100.459 3.3
982 2 22.475 101.715 3.3
983 1 23.925 101.715 3.3
984 2 24.65 100.459 3.3
985 1 26.1 0 3.3
986 2 26.825 1.25574 3.3
987 1 28.275 1.25574 3.3
988 2 29 0 3.3
989 1 26.1 2.51147 3.3
990 2 26.825 3.76721 3.3
991 1 28.275 3.76721 3.3
992 2 29 2.51147 3.3
993 1 26.1 5.02295 3.3
994 2 26.825 6.27868 3.3
995 1 28.275 6.27868 3.3
996 2 29 5.02295 3.3
997 1 26.1 7.53442 3.3
998 2 26.825 8.79016 3.3
999 1 28.275 8.79016 3.3
1000 2 29 7.53442 3.3
1001 1 26.1 10.0459 3.3
1002 2 26.825 11.3016 3.3
1003 1 28.275 11.3016 3.3
1004 2 29 10.0459 3.3
1005 1 26.1 12.5574 3.3
1006 2 26.825 13.8131 3.3
1007 1 28.275 13.8131 3.3
1008 2 29 12.5574 3.3
1009 1 26.1 15.0688 3.3
1010 2 26.825 16.3246 3.3
1011 1 28.275 16.3246 3.3
1012 2 29 15.0688 3.3
1013 1 26.1 17.5803 3.3
1014 2 26.825 18.8361 3.3
1015 1 28.275 18.8361 3.3
1016 2 29 17.5803 3.3
1017 1 26.1 20.0918 3.3
1018 2 26.825 21.3475 3.3
1019 1 28.275 21.3475 3.3
1020 2 29 20.0918 3.3
1021 1 26.1 22.6033 3.3
1022 2 26.825 23.859 3.3
1023 1 28.275 23.859 3.3
1024 2 29 22.6033 3.3
1025 1 26.1 25.1147 3.3
1026 2 26.825 26.3705 3.3
1027 1 28.275 26.3705 3.3
1028 2 29 25.1147 3.3
1029 1 26.1 27.6262 3.3
1030 2 26.825 28.8819 3.3
1031 1 28.275 28.8819 3.3
1032 2 29 27.6262 3.3
1033 1 26.1 30.1377 3.3
1034 2 26.825 31.3934 3.3
1035 1 28.275 31.3934 3.3
1036 2 29 30.1377 3.3
1037 1 26.1 32.6492 3.3
1038 2 26.825 33.9049 3.3
1039 1 28.275 33.9049 3.3
1040 2 29 32.6492 3.3
1041 1 26.1 35.1606 3.3
1042 2 26.825 36.4164 3.3
1043 1 28.275 36.4164 3.3
1044 2 29 35.1606 3.3
1045 1 26.1 37.6721 3.3
1046 2 26.825 38.9278 3.3
1047 1 28.275 38.9278 3.3
1048 2 29 37.6721 3.3
1049 1 26.1 40.1836 3.3
1050 2 26.825 41.4393 3.3
1051 1 28.275 41.4393 3.3
1052 2 29 40.1836 3.3
1053 1 26.1 42.6951 3.3
1054 2 26.825 43.9508 3.3
1055 1 28.275 43.9508 3.3
1056 2 29 42.6951 3.3
1057 1 26.1 45.2065 3.3
1058 2 26.825 46.4623 3.3
1059 1 28.275 46.4623 3.3
1060 2 29 45.2065 3.3
1061 1 26.1 47.718 3.3
1062 2 26.825 48.9737 3.3
1063 1 28.275 48.9737 3.3
1064 2 29 47.718 3.3
1065 1 26.1 50.2295 3.3
1066 2 26.825 51.4852 3.3
1067 1 28.275 51.4852 3.3
1068 2 29 50.2295 3.3
1069 1 26.1 52.7409 3.3
1070 2 26.825 53.9967 3.3
1071 1 28.275 53.9967 3.3
1072 2 29 52.7409 3.3
1073 1 26.1 55.2524 3.3
1074 2 26.825 56.5082 3.3
1075 1 28.275 56.5082 3.3
1076 2 29 55.2524 3.3
1077 1 26.1 57.7639 3.3
1078 2 26.825 59.0196 3.3
1079 1 28.275 59.0196 3.3
1080 2 29 57.7639 3.3
1081 1 26.1 60.2754 3.3
1082 2 26.825 61.5311 3.3
1083 1 28.275 61.5311 3.3
1084 2 29 60.2754 3.3
1085 1 26.1 62.7868 3.3
1086 2 26.825 64.0426 3.3
1087 1 28.275 64.0426 3.3
1088 2 29 62.7868 3.3
1089 1 26.1 65.2983 3.3
1090 2 26.825 66.5541 3.3
1091 1 28.275 66.5541 3.3
1092 2 29 65.2983 3.3
1093 1 26.1 67.8098 3.3
1094 2 26.825 69.0655 3.3
1095 1 28.275 69.0655 3.3
1096 2 29 67.8098 3.3
1097 1 26.1 70.3213 3.3
1098 2 26.825 71.577 3.3
1099 1 28.275 71.577 3.3
1100 2 29 70.3213 3.3
1101 1 26.1 72.8327 3.3
1102 2 26.825 74.0885 3.3
1103 1 28.275 74.0885 3.3
1104 2 29 72.8327 3.3
1105 1 26.1 75.3442 3.3
1106 2 26.825 76.5999 3.3
1107 1 28.275 76.5999 3.3
1108 2 29 75.3442 3.3
1109 1 26.1 77.8557 3.3
1110 2 26.825 79.1114 3.3
1111 1 28.275 79.1114 3.3
1112 2 29 77.8557 3.3
1113 1 26.1 80.3672 3.3
1114 2 26.825 81.6229 3.3
1115 1 28.275 81.6229 3.3
1116 2 29 80.3672 3.3
1117 1 26.1 82.8786 3.3
1118 2 26.825 84.1344 3.3
1119 1 28.275 84.1344 3.3
1120 2 29 82.8786 3.3
1121 1 26.1 85.3901 3.3
1122 2 26.825 86.6458 3.3
1123 1 28.275 86.6458 3.3
1124 2 29 85.3901 3.3
1125 1 26.1 87.9016 3.3
1126 2 26.825 89.1573 3.3
1127 1 28.275 89.1573 3.3
1128 2 29 87.9016 3.3
1129 1 26.1 90.4131 3.3
1130 2 26.825 91.6688 3.3
1131 1 28.275 91.6688 3.3
1132 2 29 90.4131 3.3
1133 1 26.1 92.9245 3.3
1134 2 26.825 94.1803 3.3
1135 1 28.275 94.1803 3.3
1136 2 29 92.9245 3.3
1137 1 26.1 95.436 3.3
1138 2 26.825 96.6917 3.3
1139 1 28.275 96.6917 3.3
1140 2 29 95.436 3.3
1141 1 26.1 97.9475 3.3
1142 2 26.825 99.2032 3.3
1143 1 28.275 99.2032 3.3
1144 2 29 97.9475 3.3
1145 1 26.1 100.459 3.3
1146 2 26.825 101.715 3.3
1147 1 28.275 101.715 3.3
1148 2 29 100.459 3.3
1149 1 30.45 0 3.3
1150 2 31.175 1.25574 3.3
1151 1 32.625 1.25574 3.3
1152 2 33.35 0 3.3
1153 1 30.45 2.51147 3.3
1154 2 31.175 3.76721 3.3
1155 1 32.625 3.76721 3.3
1156 2 33.35 2.51147 3.3
1157 1 30.45 5.02295 3.3
1158 2 31.175 6.27868 3.3
1159 1 32.625 6.27868 3.3
1160 2 33.35 5.02295 3.3
1161 1 30.45 7.53442 3.3
1162 2 31.175 8.79016 3.3
1163 1 32.625 8.79016 3.3
1164 2 33.35 7.53442 3.3
1165 1 30.45 10.0459 3.3
1166 2 31.175 11.3016 3.3
1167 1 32.625 11.3016 3.3
1168 2 33.35 10.0459 3.3
1169 1 30.45 12.5574 3.3
1170 2 31.175 13.8131 3.3
1171 1 32.625 13.8131 3.3
1172 2 33.35 12.5574 3.3
1173 1 30.45 15.0688 3.3
1174 2 31.175 16.3246 3.3
1175 1 32.625 16.3246 3.3
1176 2 33.35 15.0688 3.3
1177 1 30.45 17.5803 3.3
1178 2 31.175 18.8361 3.3
1179 1 32.625 18.8361 3.3
1180 2 33.35 17.5803 3.3
1181 1 30.45 20.0918 3.3
1182 2 31.175 21.3475 3.3
1183 1 32.625 21.3475 3.3
1184 2 33.35 20.0918 3.3
1185 1 30.45 22.6033 3.3
1186 2 31.175 23.859 3.3
1187 1 32.625 23.859 3.3
1188 2 33.35 22.6033 3.3
1189 1 30.45 25.1147 3.3
1190 2 31.175 26.3705 3.3
1191 1 32.625 26.3705 3.3
1192 2 33.35 25.1147 3.3
1193 1 30.45 27.6262 3.3
1194 2 31.175 28.8819 3.3
1195 1 32.625 28.8819 3.3
1196 2 33.35 27.6262 3.3
1197 1 30.45 30.1377 3.3
1198 2 31.175 31.3934 3.3
1199 1 32.625 31.3934 3.3
1200 2 33.35 30.1377 3.3
1201 1 30.45 32.6492 3.3
1202 2 31.175 33.9049 3.3
1203 1 32.625 33.9049 3.3
1204 2 33.35 32.6492 3.3
1205 1 30.45 35.1606 3.3
1206 2 31.175 36.4164 3.3
1207 1 32.625 36.4164 3.3
1208 2 33.35 35.1606 3.3
1209 1 30.45 37.6721 3.3
1210 2 31.175 38.9278 3.3
1211 1 32.625 38.9278 3.3
1212 2 33.35 37.6721 3.3
1213 1 30.45 40.1836 3.3
1214 2 31.175 41.4393 3.3
1215 1 32.625 41.4393 3.3
1216 2 33.35 40.1836 3.3
1217 1 30.45 42.6951 3.3
1218 2 31.175 43.9508 3.3
1219 1 32.625 43.9508 3.3
1220 2 33.35 42.6951 3.3
1221 1 30.45 45.2065 3.3
1222 2 31.175 46.4623 3.3
1223 1 32.625 46.4623 3.3
1224 2 33.35 45.2065 3.3
1225 1 30.45 47.718 3.3
1226 2 31.175 48.9737 3.3
1227 1 32.625 48.9737 3.3
1228 2 33.35 47.718 3.3
1229 1 30.45 50.2295 3.3
1230 2 31.175 51.4852 3.3
1231 1 32.625 51.4852 3.3
1232 2 33.35 50.2295 3.3
1233 1 30.45 52.7409 3.3
1234 2 31.175 53.9967 3.3
1235 1 32.625 53.9967 3.3
1236 2 33.35 52.7409 3.3
1237 1 30.45 55.2524 3.3
1238 2 31.175 56.5082 3.3
1239 1 32.625 56.5082 3.3
1240 2 33.35 55.2524 3.3
1241 1 30.45 57.7639 3.3
1242 2 31.175 59.0196 3.3
1243 1 32.625 59.0196 3.3
1244 2 33.35 57.7639 3.3
1245 1 30.45 60.2754 3.3
1246 2 31.175 61.5311 3.3
1247 1 32.625 61.5311 3.3
1248 2 33.35 60.2754 3.3
1249 1 30.45 62.7868 3.3
1250 2 31.175 64.0426 3.3
1251 1 32.625 64.0426 3.3
1252 2 33.35 62.7868 3.3
1253 1 30.45 65.2983 3.3
1254 2 31.175 66.5541 3.3
1255 1 32.625 66.5541 3.3
1256 2 33.35 65.2983 3.3