#hBN 10x5, a=1.45, lx=24, ly=21
4032 atoms

2 atom types

0 104.4 xlo xhi
0 52.7409 ylo yhi
-78 78 zlo zhi

Masses

1 14.0067
2 10.811

Atoms

1 1 0 0 3.3
2 2 0.725 1.25574 3.3
3 1 2.175 1.25574 3.3
4 2 2.9 0 3.3
5 1 0 2.51147 3.3
6 2 0.725 3.76721 3.3
7 1 2.175 3.76721 3.3
8 2 2.9 2.51147 3.3
9 1 0 5.02295 3.3
10 2 0.725 6.27868 3.3
11 1 2.175 6.27868 3.3
12 2 2.9 5.02295 3.3
13 1 0 7.53442 3.3
14 2 0.725 8.79016 3.3
15 1 2.175 8.79016 3.3
16 2 2.9 7.53442 3.3
17 1 0 10.0459 3.3
18 2 0.725 11.3016 3.3
19 1 2.175 11.3016 3.3
20 2 2.9 10.0459 3.3
21 1 0 12.5574 3.3
22 2 0.725 13.8131 3.3
23 1 2.175 13.8131 3.3
24 2 2.9 12.5574 3.3
25 1 0 15.0688 3.3
26 2 0.725 16.3246 3.3
27 1 2.175 16.3246 3.3
28 2 2.9 15.0688 3.3
29 1 0 17.5803 3.3
30 2 0.725 18.8361 3.3
31 1 2.175 18.8361 3.3
32 2 2.9 17.5803 3.3
33 1 0 20.0918 3.3
34 2 0.725 21.3475 3.3
35 1 2.175 21.3475 3.3
36 2 2.9 20.0918 3.3
37 1 0 22.6033 3.3
38 2 0.725 23.859 3.3
39 1 2.175 23.859 3.3
40 2 2.9 22.6033 3.3
41 1 0 25.1147 3.3
42 2 0.725 26.3705 3.3
43 1 2.175 26.3705 3.3
44 2 2.9 25.1147 3.3
45 1 0 27.6262 3.3
46 2 0.725 28.8819 3.3
47 1 2.175 28.8819 3.3
48 2 2.9 27.6262 3.3
49 1 0 30.1377 3.3
50 2 0.725 31.3934 3.3
51 1 2.175 31.3934 3.3
52 2 2.9 30.1377 3.3
53 1 0 32.6492 3.3
54 2 0.725 33.9049 3.3
55 1 2.175 33.9049 3.3
56 2 2.9 32.6492 3.3
57 1 0 35.1606 3.3
58 2 0.725 36.4164 3.3
59 1 2.175 36.4164 3.3
60 2 2.9 35.1606 3.3
61 1 0 37.6721 3.3
62 2 0.725 38.9278 3.3
63 1 2.175 38.9278 3.3
64 2 2.9 37.6721 3.3
65 1 0 40.1836 3.3
66 2 0.725 41.4393 3.3
67 1 2.175 41.4393 3.3
68 2 2.9 40.1836 3.3
69 1 0 42.6951 3.3
70 2 0.725 43.9508 3.3
71 1 2.175 43.9508 3.3
72 2 2.9 42.6951 3.3
73 1 0 45.2065 3.3
74 2 0.725 46.4623 3.3
75 1 2.175 46.4623 3.3
76 2 2.9 45.2065 3.3
77 1 0 47.718 3.3
78 2 0.725 48.9737 3.3
79 1 2.175 48.9737 3.3
80 2 2.9 47.718 3.3
81 1 0 50.2295 3.3
82 2 0.725 51.4852 3.3
83 1 2.175 51.4852 3.3
84 2 2.9 50.2295 3.3
85 1 4.35 0 3.3
86 2 5.075 1.25574 3.3
87 1 6.525 1.25574 3.3
88 2 7.25 0 3.3
89 1 4.35 2.51147 3.3
90 2 5.075 3.76721 3.3
91 1 6.525 3.76721 3.3
92 2 7.25 2.51147 3.3
93 1 4.35 5.02295 3.3
94 2 5.075 6.27868 3.3
95 1 6.525 6.27868 3.3
96 2 7.25 5.02295 3.3
97 1 4.35 7.53442 3.3
98 2 5.075 8.79016 3.3
99 1 6.525 8.79016 3.3
100 2 7.25 7.53442 3.3
101 1 4.35 10.0459 3.3
102 2 5.075 11.3016 3.3
103 1 6.525 11.3016 3.3
104 2 7.25 10.0459 3.3
105 1 4.35 12.5574 3.3
106 2 5.075 13.8131 3.3
107 1 6.525 13.8131 3.3
108 2 7.25 12.5574 3.3
109 1 4.35 15.0688 3.3
110 2 5.075 16.3246 3.3
111 1 6.525 16.3246 3.3
112 2 7.25 15.0688 3.3
113 1 4.35 17.5803 3.3
114 2 5.075 18.8361 3.3
115 1 6.525 18.8361 3.3
116 2 7.25 17.5803 3.3
117 1 4.35 20.0918 3.3
118 2 5.075 21.3475 3.3
119 1 6.525 21.3475 3.3
120 2 7.25 20.0918 3.3
121 1 4.35 22.6033 3.3
122 2 5.075 23.859 3.3
123 1 6.525 23.859 3.3
124 2 7.25 22.6033 3.3
125 1 4.35 25.1147 3.3
126 2 5.075 26.3705 3.3
127 1 6.525 26.3705 3.3
128 2 7.25 25.1147 3.3
129 1 4.35 27.6262 3.3
130 2 5.075 28.8819 3.3
131 1 6.525 28.8819 3.3
132 2 7.25 27.6262 3.3
133 1 4.35 30.1377 3.3
134 2 5.075 31.3934 3.3
135 1 6.525 31.3934 3.3
136 2 7.25 30.1377 3.3
137 1 4.35 32.6492 3.3
138 2 5.075 33.9049 3.3
139 1 6.525 33.9049 3.3
140 2 7.25 32.6492 3.3
141 1 4.35 35.1606 3.3
142 2 5.075 36.4164 3.3
143 1 6.525 36.4164 3.3
144 2 7.25 35.1606 3.3
145 1 4.35 37.6721 3.3
146 2 5.075 38.9278 3.3
147 1 6.525 38.9278 3.3
148 2 7.25 37.6721 3.3
149 1 4.35 40.1836 3.3
150 2 5.075 41.4393 3.3
151 1 6.525 41.4393 3.3
152 2 7.25 40.1836 3.3
153 1 4.35 42.6951 3.3
154 2 5.075 43.9508 3.3
155 1 6.525 43.9508 3.3
156 2 7.25 42.6951 3.3
157 1 4.35 45.2065 3.3
158 2 5.075 46.4623 3.3
159 1 6.525 46.4623 3.3
160 2 7.25 45.2065 3.3
161 1 4.35 47.718 3.3
162 2 5.075 48.9737 3.3
163 1 6.525 48.9737 3.3
164 2 7.25 47.718 3.3
165 1 4.35 50.2295 3.3
166 2 5.075 51.4852 3.3
167 1 6.525 51.4852 3.3
168 2 7.25 50.2295 3.3
169 1 8.7 0 3.3
170 2 9.425 1.25574 3.3
171 1 10.875 1.25574 3.3
172 2 11.6 0 3.3
173 1 8.7 2.51147 3.3
174 2 9.425 3.76721 3.3
175 1 10.875 3.76721 3.3
176 2 11.6 2.51147 3.3
177 1 8.7 5.02295 3.3
178 2 9.425 6.27868 3.3
179 1 10.875 6.27868 3.3
180 2 11.6 5.02295 3.3
181 1 8.7 7.53442 3.3
182 2 9.425 8.79016 3.3
183 1 10.875 8.79016 3.3
184 2 11.6 7.53442 3.3
185 1 8.7 10.0459 3.3
186 2 9.425 11.3016 3.3
187 1 10.875 11.3016 3.3
188 2 11.6 10.0459 3.3
189 1 8.7 12.5574 3.3
190 2 9.425 13.8131 3.3
191 1 10.875 13.8131 3.3
192 2 11.6 12.5574 3.3
193 1 8.7 15.0688 3.3
194 2 9.425 16.3246 3.3
195 1 10.875 16.3246 3.3
196 2 11.6 15.0688 3.3
197 1 8.7 17.5803 3.3
198 2 9.425 18.8361 3.3
199 1 10.875 18.8361 3.3
200 2 11.6 17.5803 3.3
201 1 8.7 20.0918 3.3
202 2 9.425 21.3475 3.3
203 1 10.875 21.3475 3.3
204 2 11.6 20.0918 3.3
205 1 8.7 22.6033 3.3
206 2 9.425 23.859 3.3
207 1 10.875 23.859 3.3
208 2 11.6 22.6033 3.3
209 1 8.7 25.1147 3.3
210 2 9.425 26.3705 3.3
211 1 10.875 26.3705 3.3
212 2 11.6 25.1147 3.3
213 1 8.7 27.6262 3.3
214 2 9.425 28.8819 3.3
215 1 10.875 28.8819 3.3
216 2 11.6 27.6262 3.3
217 1 8.7 30.1377 3.3
218 2 9.425 31.3934 3.3
219 1 10.875 31.3934 3.3
220 2 11.6 30.1377 3.3
221 1 8.7 32.6492 3.3
222 2 9.425 33.9049 3.3
223 1 10.875 33.9049 3.3
224 2 11.6 32.6492 3.3
225 1 8.7 35.1606 3.3
226 2 9.425 36.4164 3.3
227 1 10.875 36.4164 3.3
228 2 11.6 35.1606 3.3
229 1 8.7 37.6721 3.3
230 2 9.425 38.9278 3.3
231 1 10.875 38.9278 3.3
232 2 11.6 37.6721 3.3
233 1 8.7 40.1836 3.3
234 2 9.425 41.4393 3.3
235 1 10.875 41.4393 3.3
236 2 11.6 40.1836 3.3
237 1 8.7 42.6951 3.3
238 2 9.425 43.9508 3.3
239 1 10.875 43.9508 3.3
240 2 11.6 42.6951 3.3
241 1 8.7 45.2065 3.3
242 2 9.425 46.4623 3.3
243 1 10.875 46.4623 3.3
244 2 11.6 45.2065 3.3
245 1 8.7 47.718 3.3
246 2 9.425 48.9737 3.3
247 1 10.875 48.9737 3.3
248 2 11.6 47.718 3.3
249 1 8.7 50.2295 3.3
250 2 9.425 51.4852 3.3
251 1 10.875 51.4852 3.3
252 2 11.6 50.2295 3.3
253 1 13.05 0 3.3
254 2 13.775 1.25574 3.3
255 1 15.225 1.25574 3.3
256 2 15.95 0 3.3
257 1 13.05 2.51147 3.3
258 2 13.775 3.76721 3.3
259 1 15.225 3.76721 3.3
260 2 15.95 2.51147 3.3
261 1 13.05 5.02295 3.3
262 2 13.775 6.27868 3.3
263 1 15.225 6.27868 3.3
264 2 15.95 5.02295 3.3
265 1 13.05 7.53442 3.3
266 2 13.775 8.79016 3.3
267 1 15.225 8.79016 3.3
268 2 15.95 7.53442 3.3
269 1 13.05 10.0459 3.3
270 2 13.775 11.3016 3.3
271 1 15.225 11.3016 3.3
272 2 15.95 10.0459 3.3
273 1 13.05 12.5574 3.3
274 2 13.775 13.8131 3.3
275 1 15.225 13.8131 3.3
276 2 15.95 12.5574 3.3
277 1 13.05 15.0688 3.3
278 2 13.775 16.3246 3.3
279 1 15.225 16.3246 3.3
280 2 15.95 15.0688 3.3
281 1 13.05 17.5803 3.3
282 2 13.775 18.8361 3.3
283 1 15.225 18.8361 3.3
284 2 15.95 17.5803 3.3
285 1 13.05 20.0918 3.3
286 2 13.775 21.3475 3.3
287 1 15.225 21.3475 3.3
288 2 15.95 20.0918 3.3
289 1 13.05 22.6033 3.3
290 2 13.775 23.859 3.3
291 1 15.225 23.859 3.3
292 2 15.95 22.6033 3.3
293 1 13.05 25.1147 3.3
294 2 13.775 26.3705 3.3
295 1 15.225 26.3705 3.3
296 2 15.95 25.1147 3.3
297 1 13.05 27.6262 3.3
298 2 13.775 28.8819 3.3
299 1 15.225 28.8819 3.3
300 2 15.95 27.6262 3.3
301 1 13.05 30.1377 3.3
302 2 13.775 31.3934 3.3
303 1 15.225 31.3934 3.3
304 2 15.95 30.1377 3.3
305 1 13.05 32.6492 3.3
306 2 13.775 33.9049 3.3
307 1 15.225 33.9049 3.3
308 2 15.95 32.6492 3.3
309 1 13.05 35.1606 3.3
310 2 13.775 36.4164 3.3
311 1 15.225 36.4164 3.3
312 2 15.95 35.1606 3.3
313 1 13.05 37.6721 3.3
314 2 13.775 38.9278 3.3
315 1 15.225 38.9278 3.3
316 2 15.95 37.6721 3.3
317 1 13.05 40.1836 3.3
318 2 13.775 41.4393 3.3
319 1 15.225 41.4393 3.3
320 2 15.95 40.1836 3.3
321 1 13.05 42.6951 3.3
322 2 13.775 43.9508 3.3
323 1 15.225 43.9508 3.3
324 2 15.95 42.6951 3.3
325 1 13.05 45.2065 3.3
326 2 13.775 46.4623 3.3
327 1 15.225 46.4623 3.3
328 2 15.95 45.2065 3.3
329 1 13.05 47.718 3.3
330 2 13.775 48.9737 3.3
331 1 15.225 48.9737 3.3
332 2 15.95 47.718 3.3
333 1 13.05 50.2295 3.3
334 2 13.775 51.4852 3.3
335 1 15.225 51.4852 3.3
336 2 15.95 50.2295 3.3
337 1 17.4 0 3.3
338 2 18.125 1.25574 3.3
339 1 19.575 1.25574 3.3
340 2 20.3 0 3.3
341 1 17.4 2.51147 3.3
342 2 18.125 3.76721 3.3
343 1 19.575 3.76721 3.3
344 2 20.3 2.51147 3.3
345 1 17.4 5.02295 3.3
346 2 18.125 6.27868 3.3
347 1 19.575 6.27868 3.3
348 2 20.3 5.02295 3.3
349 1 17.4 7.53442 3.3
350 2 18.125 8.79016 3.3
351 1 19.575 8.79016 3.3
352 2 20.3 7.53442 3.3
353 1 17.4 10.0459 3.3
354 2 18.125 11.3016 3.3
355 1 19.575 11.3016 3.3
356 2 20.3 10.0459 3.3
357 1 17.4 12.5574 3.3
358 2 18.125 13.8131 3.3
359 1 19.575 13.8131 3.3
360 2 20.3 12.5574 3.3
361 1 17.4 15.0688 3.3
362 2 18.125 16.3246 3.3
363 1 19.575 16.3246 3.3
364 2 20.3 15.0688 3.3
365 1 17.4 17.5803 3.3
366 2 18.125 18.8361 3.3
367 1 19.575 18.8361 3.3
368 2 20.3 17.5803 3.3
369 1 17.4 20.0918 3.3
370 2 18.125 21.3475 3.3
371 1 19.575 21.3475 3.3
372 2 20.3 20.0918 3.3
373 1 17.4 22.6033 3.3
374 2 18.125 23.859 3.3
375 1 19.575 23.859 3.3
376 2 20.3 22.6033 3.3
377 1 17.4 25.1147 3.3
378 2 18.125 26.3705 3.3
379 1 19.575 26.3705 3.3
380 2 20.3 25.1147 3.3
381 1 17.4 27.6262 3.3
382 2 18.125 28.8819 3.3
383 1 19.575 28.8819 3.3
384 2 20.3 27.6262 3.3
385 1 17.4 30.1377 3.3
386 2 18.125 31.3934 3.3
387 1 19.575 31.3934 3.3
388 2 20.3 30.1377 3.3
389 1 17.4 32.6492 3.3
390 2 18.125 33.9049 3.3
391 1 19.575 33.9049 3.3
392 2 20.3 32.6492 3.3
393 1 17.4 35.1606 3.3
394 2 18.125 36.4164 3.3
395 1 19.575 36.4164 3.3
396 2 20.3 35.1606 3.3
397 1 17.4 37.6721 3.3
398 2 18.125 38.9278 3.3
399 1 19.575 38.9278 3.3
400 2 20.3 37.6721 3.3
401 1 17.4 40.1836 3.3
402 2 18.125 41.4393 3.3
403 1 19.575 41.4393 3.3
404 2 20.3 40.1836 3.3
405 1 17.4 42.6951 3.3
406 2 18.125 43.9508 3.3
407 1 19.575 43.9508 3.3
408 2 20.3 42.6951 3.3
409 1 17.4 45.2065 3.3
410 2 18.125 46.4623 3.3
411 1 19.575 46.4623 3.3
412 2 20.3 45.2065 3.3
413 1 17.4 47.718 3.3
414 2 18.125 48.9737 3.3
415 1 19.575 48.9737 3.3
416 2 20.3 47.718 3.3
417 1 17.4 50.2295 3.3
418 2 18.125 51.4852 3.3
419 1 19.575 51.4852 3.3
420 2 20.3 50.2295 3.3
421 1 21.75 0 3.3
422 2 22.475 1.25574 3.3
423 1 23.925 1.25574 3.3
424 2 24.65 0 3.3
425 1 21.75 2.51147 3.3
426 2 22.475 3.76721 3.3
427 1 23.925 3.76721 3.3
428 2 24.65 2.51147 3.3
429 1 21.75 5.02295 3.3
430 2 22.475 6.27868 3.3
431 1 23.925 6.27868 3.3
432 2 24.65 5.02295 3.3
433 1 21.75 7.53442 3.3
434 2 22.475 8.79016 3.3
435 1 23.925 8.79016 3.3
436 2 24.65 7.53442 3.3
437 1 21.75 10.0459 3.3
438 2 22.475 11.3016 3.3
439 1 23.925 11.3016 3.3
440 2 24.65 10.0459 3.3
441 1 21.75 12.5574 3.3
442 2 22.475 13.8131 3.3
443 1 23.925 13.8131 3.3
444 2 24.65 12.5574 3.3
445 1 21.75 15.0688 3.3
446 2 22.475 16.3246 3.3
447 1 23.925 16.3246 3.3
448 2 24.65 15.0688 3.3
449 1 21.75 17.5803 3.3
450 2 22.475 18.8361 3.3
451 1 23.925 18.8361 3.3
452 2 24.65 17.5803 3.3
453 1 21.75 20.0918 3.3
454 2 22.475 21.3475 3.3
455 1 23.925 21.3475 3.3
456 2 24.65 20.0918 3.3
457 1 21.75 22.6033 3.3
458 2 22.475 23.859 3.3
459 1 23.925 23.859 3.3
460 2 24.65 22.6033 3.3
461 1 21.75 25.1147 3.3
462 2 22.475 26.3705 3.3
463 1 23.925 26.3705 3.3
464 2 24.65 25.1147 3.3
465 1 21.75 27.6262 3.3
466 2 22.475 28.8819 3.3
467 1 23.925 28.8819 3.3
468 2 24.65 27.6262 3.3
469 1 21.75 30.1377 3.3
470 2 22.475 31.3934 3.3
471 1 23.925 31.3934 3.3
472 2 24.65 30.1377 3.3
473 1 21.75 32.6492 3.3
474 2 22.475 33.9049 3.3
475 1 23.925 33.9049 3.3
476 2 24.65 32.6492 3.3
477 1 21.75 35.1606 3.3
478 2 22.475 36.4164 3.3
479 1 23.925 36.4164 3.3
480 2 24.65 35.1606 3.3
481 1 21.75 37.6721 3.3
482 2 22.475 38.9278 3.3
483 1 23.925 38.9278 3.3
484 2 24.65 37.6721 3.3
485 1 21.75 40.1836 3.3
486 2 22.475 41.4393 3.3
487 1 23.925 41.4393 3.3
488 2 24.65 40.1836 3.3
489 1 21.75 42.6951 3.3
490 2 22.475 43.9508 3.3
491 1 23.925 43.9508 3.3
492 2 24.65 42.6951 3.3
493 1 21.75 45.2065 3.3
494 2 22.475 46.4623 3.3
495 1 23.925 46.4623 3.3
496 2 24.65 45.2065 3.3
497 1 21.75 47.718 3.3
498 2 22.475 48.9737 3.3
499 1 23.925 48.9737 3.3
500 2 24.65 47.718 3.3
501 1 21.75 50.2295 3.3
502 2 22.475 51.4852 3.3
503 1 23.925 51.4852 3.3
504 2 24.65 50.2295 3.3
505 1 26.1 0 3.3
506 2 26.825 1.25574 3.3
507 1 28.275 1.25574 3.3
508 2 29 0 3.3
509 1 26.1 2.51147 3.3
510 2 26.825 3.76721 3.3
511 1 28.275 3.76721 3.3
512 2 29 2.51147 3.3
513 1 26.1 5.02295 3.3
514 2 26.825 6.27868 3.3
515 1 28.275 6.27868 3.3
516 2 29 5.02295 3.3
517 1 26.1 7.53442 3.3
518 2 26.825 8.79016 3.3
519 1 28.275 8.79016 3.3
520 2 29 7.53442 3.3
521 1 26.1 10.0459 3.3
522 2 26.825 11.3016 3.3
523 1 28.275 11.3016 3.3
524 2 29 10.0459 3.3
525 1 26.1 12.5574 3.3
526 2 26.825 13.8131 3.3
527 1 28.275 13.8131 3.3
528 2 29 12.5574 3.3
529 1 26.1 15.0688 3.3
530 2 26.825 16.3246 3.3
531 1 28.275 16.3246 3.3
532 2 29 15.0688 3.3
533 1 26.1 17.5803 3.3
534 2 26.825 18.8361 3.3
535 1 28.275 18.8361 3.3
536 2 29 17.5803 3.3
537 1 26.1 20.0918 3.3
538 2 26.825 21.3475 3.3
539 1 28.275 21.3475 3.3
540 2 29 20.0918 3.3
541 1 26.1 22.6033 3.3
542 2 26.825 23.859 3.3
543 1 28.275 23.859 3.3
544 2 29 22.6033 3.3
545 1 26.1 25.1147 3.3
546 2 26.825 26.3705 3.3
547 1 28.275 26.3705 3.3
548 2 29 25.1147 3.3
549 1 26.1 27.6262 3.3
550 2 26.825 28.8819 3.3
551 1 28.275 28.8819 3.3
552 2 29 27.6262 3.3
553 1 26.1 30.1377 3.3
554 2 26.825 31.3934 3.3
555 1 28.275 31.3934 3.3
556 2 29 30.1377 3.3
557 1 26.1 32.6492 3.3
558 2 26.825 33.9049 3.3
559 1 28.275 33.9049 3.3
560 2 29 32.6492 3.3
561 1 26.1 35.1606 3.3
562 2 26.825 36.4164 3.3
563 1 28.275 36.4164 3.3
564 2 29 35.1606 3.3
565 1 26.1 37.6721 3.3
566 2 26.825 38.9278 3.3
567 1 28.275 38.9278 3.3
568 2 29 37.6721 3.3
569 1 26.1 40.1836 3.3
570 2 26.825 41.4393 3.3
571 1 28.275 41.4393 3.3
572 2 29 40.1836 3.3
573 1 26.1 42.6951 3.3
574 2 26.825 43.9508 3.3
575 1 28.275 43.9508 3.3
576 2 29 42.6951 3.3
577 1 26.1 45.2065 3.3
578 2 26.825 46.4623 3.3
579 1 28.275 46.4623 3.3
580 2 29 45.2065 3.3
581 1 26.1 47.718 3.3
582 2 26.825 48.9737 3.3
583 1 28.275 48.9737 3.3
584 2 29 47.718 3.3
585 1 26.1 50.2295 3.3
586 2 26.825 51.4852 3.3
587 1 28.275 51.4852 3.3
588 2 29 50.2295 3.3
589 1 30.45 0 3.3
590 2 31.175 1.25574 3.3
591 1 32.625 1.25574 3.3
592 2 33.35 0 3.3
593 1 30.45 2.51147 3.3
594 2 31.175 3.76721 3.3
595 1 32.625 3.76721 3.3
596 2 33.35 2.51147 3.3
597 1 30.45 5.02295 3.3
598 2 31.175 6.27868 3.3
599 1 32.625 6.27868 3.3
600 2 33.35 5.02295 3.3
601 1 30.45 7.53442 3.3
602 2 31.175 8.79016 3.3
603 1 32.625 8.79016 3.3
604 2 33.35 7.53442 3.3
605 1 30.45 10.0459 3.3
606 2 31.175 11.3016 3.3
607 1 32.625 11.3016 3.3
608 2 33.35 10.0459 3.3
609 1 30.45 12.5574 3.3
610 2 31.175 13.8131 3.3
611 1 32.625 13.8131 3.3
612 2 33.35 12.5574 3.3
613 1 30.45 15.0688 3.3
614 2 31.175 16.3246 3.3
615 1 32.625 16.3246 3.3
616 2 33.35 15.0688 3.3
617 1 30.45 17.5803 3.3
618 2 31.175 18.8361 3.3
619 1 32.625 18.8361 3.3
620 2 33.35 17.5803 3.3
621 1 30.45 20.0918 3.3
622 2 31.175 21.3475 3.3
623 1 32.625 21.3475 3.3
624 2 33.35 20.0918 3.3
625 1 30.45 22.6033 3.3
626 2 31.175 23.859 3.3
627 1 32.625 23.859 3.3
628 2 33.35 22.6033 3.3
629 1 30.45 25.1147 3.3
630 2 31.175 26.3705 3.3
631 1 32.625 26.3705 3.3
632 2 33.35 25.1147 3.3
633 1 30.45 27.6262 3.3
634 2 31.175 28.8819 3.3
635 1 32.625 28.8819 3.3
636 2 33.35 27.6262 3.3
637 1 30.45 30.1377 3.3
638 2 31.175 31.3934 3.3
639 1 32.625 31.3934 3.3
640 2 33.35 30.1377 3.3
641 1 30.45 32.6492 3.3
642 2 31.175 33.9049 3.3
643 1 32.625 33.9049 3.3
644 2 33.35 32.6492 3.3
645 1 30.45 35.1606 3.3
646 2 31.175 36.4164 3.3
647 1 32.625 36.4164 3.3
648 2 33.35 35.1606 3.3
649 1 30.45 37.6721 3.3
650 2 31.175 38.9278 3.3
651 1 32.625 38.9278 3.3
652 2 33.35 37.6721 3.3
653 1 30.45 40.1836 3.3
654 2 31.175 41.4393 3.3
655 1 32.625 41.4393 3.3
656 2 33.35 40.1836 3.3
657 1 30.45 42.6951 3.3
658 2 31.175 43.9508 3.3
659 1 32.625 43.9508 3.3
660 2 33.35 42.6951 3.3
661 1 30.45 45.2065 3.3
662 2 31.175 46.4623 3.3
663 1 32.625 46.4623 3.3
664 2 33.35 45.2065 3.3
665 1 30.45 47.718 3.3
666 2 31.175 48.9737 3.3
667 1 32.625 48.9737 3.3
668 2 33.35 47.718 3.3
669 1 30.45 50.2295 3.3
670 2 31.175 51.4852 3.3
671 1 32.625 51.4852 3.3
672 2 33.35 50.2295 3.3
673 1 34.8 0 3.3
674 2 35.525 1.25574 3.3
675 1 36.975 1.25574 3.3
676 2 37.7 0 3.3
677 1 34.8 2.51147 3.3
678 2 35.525 3.76721 3.3
679 1 36.975 3.76721 3.3
680 2 37.7 2.51147 3.3
681 1 34.8 5.02295 3.3
682 2 35.525 6.27868 3.3
683 1 36.975 6.27868 3.3
684 2 37.7 5.02295 3.3
685 1 34.8 7.53442 3.3
686 2 35.525 8.79016 3.3
687 1 36.975 8.79016 3.3
688 2 37.7 7.53442 3.3
689 1 34.8 10.0459 3.3
690 2 35.525 11.3016 3.3
691 1 36.975 11.3016 3.3
692 2 37.7 10.0459 3.3
693 1 34.8 12.5574 3.3
694 2 35.525 13.8131 3.3
695 1 36.975 13.8131 3.3
696 2 37.7 12.5574 3.3
697 1 34.8 15.0688 3.3
698 2 35.525 16.3246 3.3
699 1 36.975 16.3246 3.3
700 2 37.7 15.0688 3.3
701 1 34.8 17.5803 3.3
702 2 35.525 18.8361 3.3
703 1 36.975 18.8361 3.3
704 2 37.7 17.5803 3.3
705 1 34.8 20.0918 3.3
706 2 35.525 21.3475 3.3
707 1 36.975 21.3475 3.3
708 2 37.7 20.0918 3.3
709 1 34.8 22.6033 3.3
710 2 35.525 23.859 3.3
711 1 36.975 23.859 3.3
712 2 37.7 22.6033 3.3
713 1 34.8 25.1147 3.3
714 2 35.525 26.3705 3.3
715 1 36.975 26.3705 3.3
716 2 37.7 25.1147 3.3
717 1 34.8 27.6262 3.3
718 2 35.525 28.8819 3.3
719 1 36.975 28.8819 3.3
720 2 37.7 27.6262 3.3
721 1 34.8 30.1377 3.3
722 2 35.525 31.3934 3.3
723 1 36.975 31.3934 3.3
724 2 37.7 30.1377 3.3
725 1 34.8 32.6492 3.3
726 2 35.525 33.9049 3.3
727 1 36.975 33.9049 3.3
728 2 37.7 32.6492 3.3
729 1 34.8 35.1606 3.3
730 2 35.525 36.4164 3.3
731 1 36.975 36.4164 3.3
732 2 37.7 35.1606 3.3
733 1 34.8 37.6721 3.3
734 2 35.525 38.9278 3.3
735 1 36.975 38.9278 3.3
736 2 37.7 37.6721 3.3
737 1 34.8 40.1836 3.3
738 2 35.525 41.4393 3.3
739 1 36.975 41.4393 3.3
740 2 37.7 40.1836 3.3
741 1 34.8 42.6951 3.3
742 2 35.525 43.9508 3.3
743 1 36.975 43.9508 3.3
744 2 37.7 42.6951 3.3
745 1 34.8 45.2065 3.3
746 2 35.525 46.4623 3.3
747 1 36.975 46.4623 3.3
748 2 37.7 45.2065 3.3
749 1 34.8 47.718 3.3
750 2 35.525 48.9737 3.3
751 1 36.975 48.9737 3.3
752 2 37.7 47.718 3.3
753 1 34.8 50.2295 3.3
754 2 35.525 51.4852 3.3
755 1 36.975 51.4852 3.3
756 2 37.7 50.2295 3.3
757 1 39.15 0 3.3
758 2 39.875 1.25574 3.3
759 1 41.325 1.25574 3.3
760 2 42.05 0 3.3
761 1 39.15 2.51147 3.3
762 2 39.875 3.76721 3.3
763 1 41.325 3.76721 3.3
764 2 42.05 2.51147 3.3
765 1 39.15 5.02295 3.3
766 2 39.875 6.27868 3.3
767 1 41.325 6.27868 3.3
768 2 42.05 5.02295 3.3
769 1 39.15 7.53442 3.3
770 2 39.875 8.79016 3.3
771 1 41.325 8.79016 3.3
772 2 42.05 7.53442 3.3
773 1 39.15 10.0459 3.3
774 2 39.875 11.3016 3.3
775 1 41.325 11.3016 3.3
776 2 42.05 10.0459 3.3
777 1 39.15 12.5574 3.3
778 2 39.875 13.8131 3.3
779 1 41.325 13.8131 3.3
780 2 42.05 12.5574 3.3
781 1 39.15 15.0688 3.3
782 2 39.875 16.3246 3.3
783 1 41.325 16.3246 3.3
784 2 42.05 15.0688 3.3
785 1 39.15 17.5803 3.3
786 2 39.875 18.8361 3.3
787 1 41.325 18.8361 3.3
788 2 42.05 17.5803 3.3
789 1 39.15 20.0918 3.3
790 2 39.875 21.3475 3.3
791 1 41.325 21.3475 3.3
792 2 42.05 20.0918 3.3
793 1 39.15 22.6033 3.3
794 2 39.875 23.859 3.3
795 1 41.325 23.859 3.3
796 2 42.05 22.6033 3.3
797 1 39.15 25.1147 3.3
798 2 39.875 26.3705 3.3
799 1 41.325 26.3705 3.3
800 2 42.05 25.1147 3.3
801 1 39.15 27.6262 3.3
802 2 39.875 28.8819 3.3
803 1 41.325 28.8819 3.3
804 2 42.05 27.6262 3.3
805 1 39.15 30.1377 3.3
806 2 39.875 31.3934 3.3
807 1 41.325 31.3934 3.3
808 2 42.05 30.1377 3.3
809 1 39.15 32.6492 3.3
810 2 39.875 33.9049 3.3
811 1 41.325 33.9049 3.3
812 2 42.05 32.6492 3.3
813 1 39.15 35.1606 3.3
814 2 39.875 36.4164 3.3
815 1 41.325 36.4164 3.3
816 2 42.05 35.1606 3.3
817 1 39.15 37.6721 3.3
818 2 39.875 38.9278 3.3
819 1 41.325 38.9278 3.3
820 2 42.05 37.6721 3.3
821 1 39.15 40.1836 3.3
822 2 39.875 41.4393 3.3
823 1 41.325 41.4393 3.3
824 2 42.05 40.1836 3.3
825 1 39.15 42.6951 3.3
826 2 39.875 43.9508 3.3
827 1 41.325 43.9508 3.3
828 2 42.05 42.6951 3.3
829 1 39.15 45.2065 3.3
830 2 39.875 46.4623 3.3
831 1 41.325 46.4623 3.3
832 2 42.05 45.2065 3.3
833 1 39.15 47.718 3.3
834 2 39.875 48.9737 3.3
835 1 41.325 48.9737 3.3
836 2 42.05 47.718 3.3
837 1 39.15 50.2295 3.3
838 2 39.875 51.4852 3.3
839 1 41.325 51.4852 3.3
840 2 42.05 50.2295 3.3
841 1 43.5 0 3.3
842 2 44.225 1.25574 3.3
843 1 45.675 1.25574 3.3
844 2 46.4 0 3.3
845 1 43.5 2.51147 3.3
846 2 44.225 3.76721 3.3
847 1 45.675 3.76721 3.3
848 2 46.4 2.51147 3.3
849 1 43.5 5.02295 3.3
850 2 44.225 6.27868 3.3
851 1 45.675 6.27868 3.3
852 2 46.4 5.02295 3.3
853 1 43.5 7.53442 3.3
854 2 44.225 8.79016 3.3
855 1 45.675 8.79016 3.3
856 2 46.4 7.53442 3.3
857 1 43.5 10.0459 3.3
858 2 44.225 11.3016 3.3
859 1 45.675 11.3016 3.3
860 2 46.4 10.0459 3.3
861 1 43.5 12.5574 3.3
862 2 44.225 13.8131 3.3
863 1 45.675 13.8131 3.3
864 2 46.4 12.5574 3.3
865 1 43.5 15.0688 3.3
866 2 44.225 16.3246 3.3
867 1 45.675 16.3246 3.3
868 2 46.4 15.0688 3.3
869 1 43.5 17.5803 3.3
870 2 44.225 18.8361 3.3
871 1 45.675 18.8361 3.3
872 2 46.4 17.5803 3.3
873 1 43.5 20.0918 3.3
874 2 44.225 21.3475 3.3
875 1 45.675 21.3475 3.3
876 2 46.4 20.0918 3.3
877 1 43.5 22.6033 3.3
878 2 44.225 23.859 3.3
879 1 45.675 23.859 3.3
880 2 46.4 22.6033 3.3
881 1 43.5 25.1147 3.3
882 2 44.225 26.3705 3.3
883 1 45.675 26.3705 3.3
884 2 46.4 25.1147 3.3
885 1 43.5 27.6262 3.3
886 2 44.225 28.8819 3.3
887 1 45.675 28.8819 3.3
888 2 46.4 27.6262 3.3
889 1 43.5 30.1377 3.3
890 2 44.225 31.3934 3.3
891 1 45.675 31.3934 3.3
892 2 46.4 30.1377 3.3
893 1 43.5 32.6492 3.3
894 2 44.225 33.9049 3.3
895 1 45.675 33.9049 3.3
896 2 46.4 32.6492 3.3
897 1 43.5 35.1606 3.3
898 2 44.225 36.4164 3.3
899 1 45.675 36.4164 3.3
900 2 46.4 35.1606 3.3
901 1 43.5 37.6721 3.3
902 2 44.225 38.9278 3.3
903 1 45.675 38.9278 3.3
904 2 46.4 37.6721 3.3
905 1 43.5 40.1836 3.3
906 2 44.225 41.4393 3.3
907 1 45.675 41.4393 3.3
908 2 46.4 40.1836 3.3
909 1 43.5 42.6951 3.3
910 2 44.225 43.9508 3.3
911 1 45.675 43.9508 3.3
912 2 46.4 42.6951 3.3
913 1 43.5 45.2065 3.3
914 2 44.225 46.4623 3.3
915 1 45.675 46.4623 3.3
916 2 46.4 45.2065 3.3
917 1 43.5 47.718 3.3
918 2 44.225 48.9737 3.3
919 1 45.675 48.9737 3.3
920 2 46.4 47.718 3.3
921 1 43.5 50.2295 3.3
922 2 44.225 51.4852 3.3
923 1 45.675 51.4852 3.3
924 2 46.4 50.2295 3.3
925 1 47.85 0 3.3
926 2 48.575 1.25574 3.3
927 1 50.025 1.25574 3.3
928 2 50.75 0 3.3
929 1 47.85 2.51147 3.3
930 2 48.575 3.76721 3.3
931 1 50.025 3.76721 3.3
932 2 50.75 2.51147 3.3
933 1 47.85 5.02295 3.3
934 2 48.575 6.27868 3.3
935 1 50.025 6.27868 3.3
936 2 50.75 5.02295 3.3
937 1 47.85 7.53442 3.3
938 2 48.575 8.79016 3.3
939 1 50.025 8.79016 3.3
940 2 50.75 7.53442 3.3
941 1 47.85 10.0459 3.3
942 2 48.575 11.3016 3.3
943 1 50.025 11.3016 3.3
944 2 50.75 10.0459 3.3
945 1 47.85 12.5574 3.3
946 2 48.575 13.8131 3.3
947 1 50.025 13.8131 3.3
948 2 50.75 12.5574 3.3
949 1 47.85 15.0688 3.3
950 2 48.575 16.3246 3.3
951 1 50.025 16.3246 3.3
952 2 50.75 15.0688 3.3
953 1 47.85 17.5803 3.3
954 2 48.575 18.8361 3.3
955 1 50.025 18.8361 3.3
956 2 50.75 17.5803 3.3
957 1 47.85 20.0918 3.3
958 2 48.575 21.3475 3.3
959 1 50.025 21.3475 3.3
960 2 50.75 20.0918 3.3
961 1 47.85 22.6033 3.3
962 2 48.575 23.859 3.3
963 1 50.025 23.859 3.3
964 2 50.75 22.6033 3.3
965 1 47.85 25.1147 3.3
966 2 48.575 26.3705 3.3
967 1 50.025 26.3705 3.3
968 2 50.75 25.1147 3.3
969 1 47.85 27.6262 3.3
970 2 48.575 28.8819 3.3
971 1 50.025 28.8819 3.3
972 2 50.75 27.6262 3.3
973 1 47.85 30.1377 3.3
974 2 48.575 31.3934 3.3
975 1 50.025 31.3934 3.3
976 2 50.75 30.1377 3.3
977 1 47.85 32.6492 3.3
978 2 48.575 33.9049 3.3
979 1 50.025 33.9049 3.3
980 2 50.75 32.6492 3.3
981 1 47.85 35.1606 3.3
982 2 48.575 36.4164 3.3
983 1 50.025 36.4164 3.3
984 2 50.75 35.1606 3.3
985 1 47.85 37.6721 3.3
986 2 48.575 38.9278 3.3
987 1 50.025 38.9278 3.3
988 2 50.75 37.6721 3.3
989 1 47.85 40.1836 3.3
990 2 48.575 41.4393 3.3
991 1 50.025 41.4393 3.3
992 2 50.75 40.1836 3.3
993 1 47.85 42.6951 3.3
994 2 48.575 43.9508 3.3
995 1 50.025 43.9508 3.3
996 2 50.75 42.6951 3.3
997 1 47.85 45.2065 3.3
998 2 48.575 46.4623 3.3
999 1 50.025 46.4623 3.3
1000 2 50.75 45.2065 3.3
1001 1 47.85 47.718 3.3
1002 2 48.575 48.9737 3.3
1003 1 50.025 48.9737 3.3
1004 2 50.75 47.718 3.3
1005 1 47.85 50.2295 3.3
1006 2 48.575 51.4852 3.3
1007 1 50.025 51.4852 3.3
1008 2 50.75 50.2295 3.3
1009 1 52.2 0 3.3
1010 2 52.925 1.25574 3.3
1011 1 54.375 1.25574 3.3
1012 2 55.1 0 3.3
1013 1 52.2 2.51147 3.3
1014 2 52.925 3.76721 3.3
1015 1 54.375 3.76721 3.3
1016 2 55.1 2.51147 3.3
1017 1 52.2 5.02295 3.3
1018 2 52.925 6.27868 3.3
1019 1 54.375 6.27868 3.3
1020 2 55.1 5.02295 3.3
1021 1 52.2 7.53442 3.3
1022 2 52.925 8.79016 3.3
1023 1 54.375 8.79016 3.3
1024 2 55.1 7.53442 3.3
1025 1 52.2 10.0459 3.3
1026 2 52.925 11.3016 3.3
1027 1 54.375 11.3016 3.3
1028 2 55.1 10.0459 3.3
1029 1 52.2 12.5574 3.3
1030 2 52.925 13.8131 3.3
1031 1 54.375 13.8131 3.3
1032 2 55.1 12.5574 3.3
1033 1 52.2 15.0688 3.3
1034 2 52.925 16.3246 3.3
1035 1 54.375 16.3246 3.3
1036 2 55.1 15.0688 3.3
1037 1 52.2 17.5803 3.3
1038 2 52.925 18.8361 3.3
1039 1 54.375 18.8361 3.3
1040 2 55.1 17.5803 3.3
1041 1 52.2 20.0918 3.3
1042 2 52.925 21.3475 3.3
1043 1 54.375 21.3475 3.3
1044 2 55.1 20.0918 3.3
1045 1 52.2 22.6033 3.3
1046 2 52.925 23.859 3.3
1047 1 54.375 23.859 3.3
1048 2 55.1 22.6033 3.3
1049 1 52.2 25.1147 3.3
1050 2 52.925 26.3705 3.3
1051 1 54.375 26.3705 3.3
1052 2 55.1 25.1147 3.3
1053 1 52.2 27.6262 3.3
1054 2 52.925 28.8819 3.3
1055 1 54.375 28.8819 3.3
1056 2 55.1 27.6262 3.3
1057 1 52.2 30.1377 3.3
1058 2 52.925 31.3934 3.3
1059 1 54.375 31.3934 3.3
1060 2 55.1 30.1377 3.3
1061 1 52.2 32.6492 3.3
1062 2 52.925 33.9049 3.3
1063 1 54.375 33.9049 3.3
1064 2 55.1 32.6492 3.3
1065 1 52.2 35.1606 3.3
1066 2 52.925 36.4164 3.3
1067 1 54.375 36.4164 3.3
1068 2 55.1 35.1606 3.3
1069 1 52.2 37.6721 3.3
1070 2 52.925 38.9278 3.3
1071 1 54.375 38.9278 3.3
1072 2 55.1 37.6721 3.3
1073 1 52.2 40.1836 3.3
1074 2 52.925 41.4393 3.3
1075 1 54.375 41.4393 3.3
1076 2 55.1 40.1836 3.3
1077 1 52.2 42.6951 3.3
1078 2 52.925 43.9508 3.3
1079 1 54.375 43.9508 3.3
1080 2 55.1 42.6951 3.3
1081 1 52.2 45.2065 3.3
1082 2 52.925 46.4623 3.3
1083 1 54.375 46.4623 3.3
1084 2 55.1 45.2065 3.3
1085 1 52.2 47.718 3.3
1086 2 52.925 48.9737 3.3
1087 1 54.375 48.9737 3.3
1088 2 55.1 47.718 3.3
1089 1 52.2 50.2295 3.3
1090 2 52.925 51.4852 3.3
1091 1 54.375 51.4852 3.3
1092 2 55.1 50.2295 3.3
1093 1 56.55 0 3.3
1094 2 57.275 1.25574 3.3
1095 1 58.725 1.25574 3.3
1096 2 59.45 0 3.3
1097 1 56.55 2.51147 3.3
1098 2 57.275 3.76721 3.3
1099 1 58.725 3.76721 3.3
1100 2 59.45 2.51147 3.3
1101 1 56.55 5.02295 3.3
1102 2 57.275 6.27868 3.3
1103 1 58.725 6.27868 3.3
1104 2 59.45 5.02295 3.3
1105 1 56.55 7.53442 3.3
1106 2 57.275 8.79016 3.3
1107 1 58.725 8.79016 3.3
1108 2 59.45 7.53442 3.3
1109 1 56.55 10.0459 3.3
1110 2 57.275 11.3016 3.3
1111 1 58.725 11.3016 3.3
1112 2 59.45 10.0459 3.3
1113 1 56.55 12.5574 3.3
1114 2 57.275 13.8131 3.3
1115 1 58.725 13.8131 3.3
1116 2 59.45 12.5574 3.3
1117 1 56.55 15.0688 3.3
1118 2 57.275 16.3246 3.3
1119 1 58.725 16.3246 3.3
1120 2 59.45 15.0688 3.3
1121 1 56.55 17.5803 3.3
1122 2 57.275 18.8361 3.3
1123 1 58.725 18.8361 3.3
1124 2 59.45 17.5803 3.3
1125 1 56.55 20.0918 3.3
1126 2 57.275 21.3475 3.3
1127 1 58.725 21.3475 3.3
1128 2 59.45 20.0918 3.3
1129 1 56.55 22.6033 3.3
1130 2 57.275 23.859 3.3
1131 1 58.725 23.859 3.3
1132 2 59.45 22.6033 3.3
1133 1 56.55 25.1147 3.3
1134 2 57.275 26.3705 3.3
1135 1 58.725 26.3705 3.3
1136 2 59.45 25.1147 3.3
1137 1 56.55 27.6262 3.3
1138 2 57.275 28.8819 3.3
1139 1 58.725 28.8819 3.3
1140 2 59.45 27.6262 3.3
1141 1 56.55 30.1377 3.3
1142 2 57.275 31.3934 3.3
1143 1 58.725 31.3934 3.3
1144 2 59.45 30.1377 3.3
1145 1 56.55 32.6492 3.3
1146 2 57.275 33.9049 3.3
1147 1 58.725 33.9049 3.3
1148 2 59.45 32.6492 3.3
1149 1 56.55 35.1606 3.3
1150 2 57.275 36.4164 3.3
1151 1 58.725 36.4164 3.3
1152 2 59.45 35.1606 3.3
1153 1 56.55 37.6721 3.3
1154 2 57.275 38.9278 3.3
1155 1 58.725 38.9278 3.3
1156 2 59.45 37.6721 3.3
1157 1 56.55 40.1836 3.3
1158 2 57.275 41.4393 3.3
1159 1 58.725 41.4393 3.3
1160 2 59.45 40.1836 3.3
1161 1 56.55 42.6951 3.3
1162 2 57.275 43.9508 3.3
1163 1 58.725 43.9508 3.3
1164 2 59.45 42.6951 3.3
1165 1 56.55 45.2065 3.3
1166 2 57.275 46.4623 3.3
1167 1 58.725 46.4623 3.3
1168 2 59.45 45.2065 3.3
1169 1 56.55 47.718 3.3
1170 2 57.275 48.9737 3.3
1171 1 58.725 48.9737 3.3
1172 2 59.45 47.718 3.3
1173 1 56.55 50.2295 3.3
1174 2 57.275 51.4852 3.3
1175 1 58.725 51.4852 3.3
1176 2 59.45 50.2295 3.3
1177 1 60.9 0 3.3
1178 2 61.625 1.25574 3.3
1179 1 63.075 1.25574 3.3
1180 2 63.8 0 3.3
1181 1 60.9 2.51147 3.3
1182 2 61.625 3.76721 3.3
1183 1 63.075 3.76721 3.3
1184 2 63.8 2.51147 3.3
1185 1 60.9 5.02295 3.3
1186 2 61.625 6.27868 3.3
1187 1 63.075 6.27868 3.3
1188 2 63.8 5.02295 3.3
1189 1 60.9 7.53442 3.3
1190 2 61.625 8.79016 3.3
1191 1 63.075 8.79016 3.3
1192 2 63.8 7.53442 3.3
1193 1 60.9 10.0459 3.3
1194 2 61.625 11.3016 3.3
1195 1 63.075 11.3016 3.3
1196 2 63.8 10.0459 3.3
1197 1 60.9 12.5574 3.3
1198 2 61.625 13.8131 3.3
1199 1 63.075 13.8131 3.3
1200 2 63.8 12.5574 3.3
1201 1 60.9 15.0688 3.3
1202 2 61.625 16.3246 3.3
1203 1 63.075 16.3246 3.3
1204 2 63.8 15.0688 3.3
1205 1 60.9 17.5803 3.3
1206 2 61.625 18.8361 3.3
1207 1 63.075 18.8361 3.3
1208 2 63.8 17.5803 3.3
1209 1 60.9 20.0918 3.3
1210 2 61.625 21.3475 3.3
1211 1 63.075 21.3475 3.3
1212 2 63.8 20.0918 3.3
1213 1 60.9 22.6033 3.3
1214 2 61.625 23.859 3.3
1215 1 63.075 23.859 3.3
1216 2 63.8 22.6033 3.3
1217 1 60.9 25.1147 3.3
1218 2 61.625 26.3705 3.3
1219 1 63.075 26.3705 3.3
1220 2 63.8 25.1147 3.3
1221 1 60.9 27.6262 3.3
1222 2 61.625 28.8819 3.3
1223 1 63.075 28.8819 3.3
1224 2 63.8 27.6262 3.3
1225 1 60.9 30.1377 3.3
1226 2 61.625 31.3934 3.3
1227 1 63.075 31.3934 3.3
1228 2 63.8 30.1377 3.3
1229 1 60.9 32.6492 3.3
1230 2 61.625 33.9049 3.3
1231 1 63.075 33.9049 3.3
1232 2 63.8 32.6492 3.3
1233 1 60.9 35.1606 3.3
1234 2 61.625 36.4164 3.3
1235 1 63.075 36.4164 3.3
1236 2 63.8 35.1606 3.3
1237 1 60.9 37.6721 3.3
1238 2 61.625 38.9278 3.3
1239 1 63.075 38.9278 3.3
1240 2 63.8 37.6721 3.3
1241 1 60.9 40.1836 3.3
1242 2 61.625 41.4393 3.3
1243 1 63.075 41.4393 3.3
1244 2 63.8 40.1836 3.3
1245 1 60.9 42.6951 3.3
1246 2 61.625 43.9508 3.3
1247 1 63.075 43.9508 3.3
1248 2 63.8 42.6951 3.3